/*--------------------------------*- C++ -*----------------------------------*\
| =========                 |                                                 |
| \\      /  F ield         | OpenFOAM: The Open Source CFD Toolbox           |
|  \\    /   O peration     | Version:  v2012                                 |
|   \\  /    A nd           | Website:  www.openfoam.com                      |
|    \\/     M anipulation  |                                                 |
\*---------------------------------------------------------------------------*/
FoamFile
{
    version     2.0;
    format      ascii;
    class       volScalarField;
    location    "67";
    object      p;
}
// * * * * * * * * * * * * * * * * * * * * * * * * * * * * * * * * * * * * * //

dimensions      [0 2 -2 0 0 0 0];


internalField   nonuniform List<scalar> 
292667
(
1.07767e-06
1.06868e-06
1.068e-06
1.06806e-06
1.06897e-06
1.07853e-06
1.06888e-06
1.06655e-06
1.06517e-06
1.0646e-06
1.06468e-06
1.06541e-06
1.06699e-06
1.06954e-06
1.06888e-06
1.06587e-06
1.06397e-06
1.06292e-06
1.06247e-06
1.06253e-06
1.06311e-06
1.06432e-06
1.06646e-06
1.06971e-06
1.07767e-06
1.06655e-06
1.06397e-06
1.06242e-06
1.06156e-06
1.06119e-06
1.06124e-06
1.06172e-06
1.06272e-06
1.06447e-06
1.06735e-06
1.07716e-06
1.06868e-06
1.06517e-06
1.06292e-06
1.06156e-06
1.06079e-06
1.06046e-06
1.0605e-06
1.06094e-06
1.06183e-06
1.06337e-06
1.06592e-06
1.07204e-06
1.068e-06
1.0646e-06
1.06247e-06
1.06119e-06
1.06046e-06
1.06014e-06
1.06018e-06
1.0606e-06
1.06145e-06
1.06291e-06
1.06533e-06
1.07051e-06
1.06806e-06
1.06468e-06
1.06253e-06
1.06124e-06
1.0605e-06
1.06018e-06
1.06023e-06
1.06065e-06
1.0615e-06
1.06297e-06
1.06541e-06
1.07082e-06
1.06897e-06
1.06541e-06
1.06311e-06
1.06172e-06
1.06094e-06
1.0606e-06
1.06065e-06
1.06109e-06
1.062e-06
1.06358e-06
1.0662e-06
1.07233e-06
1.07853e-06
1.06699e-06
1.06432e-06
1.06272e-06
1.06183e-06
1.06145e-06
1.0615e-06
1.062e-06
1.06305e-06
1.06488e-06
1.06786e-06
1.07702e-06
1.06954e-06
1.06646e-06
1.06447e-06
1.06337e-06
1.06291e-06
1.06297e-06
1.06358e-06
1.06488e-06
1.06713e-06
1.073e-06
1.06971e-06
1.06735e-06
1.06592e-06
1.06533e-06
1.06541e-06
1.0662e-06
1.06786e-06
1.073e-06
1.07716e-06
1.07204e-06
1.07051e-06
1.07082e-06
1.07233e-06
1.07701e-06
1.05335e-06
1.05268e-06
1.05265e-06
1.0527e-06
1.05338e-06
1.05324e-06
1.05338e-06
1.05286e-06
1.05252e-06
1.05134e-06
1.05133e-06
1.05134e-06
1.05268e-06
1.05292e-06
1.05343e-06
1.05286e-06
1.05251e-06
1.05138e-06
1.05134e-06
1.05138e-06
1.05134e-06
1.05138e-06
1.05267e-06
1.05291e-06
1.05342e-06
1.05335e-06
1.05252e-06
1.05138e-06
1.05133e-06
1.05135e-06
1.05133e-06
1.05135e-06
1.05133e-06
1.05138e-06
1.05267e-06
1.05294e-06
1.05344e-06
1.05268e-06
1.05134e-06
1.05134e-06
1.05135e-06
1.05131e-06
1.05132e-06
1.05131e-06
1.05135e-06
1.05134e-06
1.05135e-06
1.05309e-06
1.05361e-06
1.05265e-06
1.05133e-06
1.05138e-06
1.05133e-06
1.05132e-06
1.05131e-06
1.05132e-06
1.05133e-06
1.05138e-06
1.05133e-06
1.05312e-06
1.05355e-06
1.0527e-06
1.05134e-06
1.05134e-06
1.05135e-06
1.05131e-06
1.05132e-06
1.05131e-06
1.05135e-06
1.05134e-06
1.05134e-06
1.05311e-06
1.05357e-06
1.05338e-06
1.05268e-06
1.05138e-06
1.05133e-06
1.05135e-06
1.05133e-06
1.05135e-06
1.05133e-06
1.05138e-06
1.05287e-06
1.053e-06
1.05357e-06
1.05324e-06
1.05292e-06
1.05267e-06
1.05138e-06
1.05134e-06
1.05138e-06
1.05134e-06
1.05138e-06
1.05284e-06
1.05297e-06
1.05297e-06
1.05343e-06
1.05291e-06
1.05267e-06
1.05135e-06
1.05133e-06
1.05134e-06
1.05287e-06
1.05297e-06
1.05301e-06
1.05353e-06
1.05342e-06
1.05294e-06
1.05309e-06
1.05312e-06
1.05311e-06
1.053e-06
1.05297e-06
1.05353e-06
1.05344e-06
1.05361e-06
1.05355e-06
1.05357e-06
1.05357e-06
1.0444e-06
1.04367e-06
1.04362e-06
1.04366e-06
1.04441e-06
1.04443e-06
1.04441e-06
1.04378e-06
1.04338e-06
1.04225e-06
1.04224e-06
1.04225e-06
1.04354e-06
1.04382e-06
1.04442e-06
1.04378e-06
1.04336e-06
1.04229e-06
1.04229e-06
1.04233e-06
1.04229e-06
1.04229e-06
1.04354e-06
1.04382e-06
1.04442e-06
1.0444e-06
1.04338e-06
1.04229e-06
1.04231e-06
1.04235e-06
1.04235e-06
1.04235e-06
1.04231e-06
1.04229e-06
1.04355e-06
1.04388e-06
1.04444e-06
1.04367e-06
1.04225e-06
1.04229e-06
1.04235e-06
1.04236e-06
1.04238e-06
1.04236e-06
1.04235e-06
1.04229e-06
1.04225e-06
1.04395e-06
1.04459e-06
1.04362e-06
1.04224e-06
1.04233e-06
1.04235e-06
1.04238e-06
1.04238e-06
1.04238e-06
1.04235e-06
1.04233e-06
1.04224e-06
1.04395e-06
1.04461e-06
1.04366e-06
1.04225e-06
1.04229e-06
1.04235e-06
1.04236e-06
1.04238e-06
1.04236e-06
1.04235e-06
1.04229e-06
1.04225e-06
1.04395e-06
1.04461e-06
1.04441e-06
1.04354e-06
1.04229e-06
1.04231e-06
1.04235e-06
1.04235e-06
1.04235e-06
1.04231e-06
1.04229e-06
1.04376e-06
1.04393e-06
1.04458e-06
1.04443e-06
1.04382e-06
1.04354e-06
1.04229e-06
1.04229e-06
1.04233e-06
1.04229e-06
1.04229e-06
1.04374e-06
1.04387e-06
1.04396e-06
1.04442e-06
1.04382e-06
1.04355e-06
1.04225e-06
1.04224e-06
1.04225e-06
1.04376e-06
1.04387e-06
1.04394e-06
1.04456e-06
1.04442e-06
1.04388e-06
1.04395e-06
1.04395e-06
1.04395e-06
1.04393e-06
1.04396e-06
1.04456e-06
1.04444e-06
1.04459e-06
1.04461e-06
1.04461e-06
1.04458e-06
1.03547e-06
1.03473e-06
1.03467e-06
1.03472e-06
1.03548e-06
1.0355e-06
1.03548e-06
1.03484e-06
1.03442e-06
1.03326e-06
1.03327e-06
1.03326e-06
1.03457e-06
1.03486e-06
1.03549e-06
1.03484e-06
1.03439e-06
1.03329e-06
1.0333e-06
1.03332e-06
1.0333e-06
1.03329e-06
1.03456e-06
1.03486e-06
1.03549e-06
1.03547e-06
1.03442e-06
1.03329e-06
1.03331e-06
1.03334e-06
1.03334e-06
1.03334e-06
1.03331e-06
1.03329e-06
1.03458e-06
1.03494e-06
1.03551e-06
1.03473e-06
1.03326e-06
1.0333e-06
1.03334e-06
1.03336e-06
1.03337e-06
1.03336e-06
1.03334e-06
1.0333e-06
1.03326e-06
1.03499e-06
1.03566e-06
1.03467e-06
1.03327e-06
1.03332e-06
1.03334e-06
1.03337e-06
1.03337e-06
1.03337e-06
1.03334e-06
1.03332e-06
1.03327e-06
1.03499e-06
1.03568e-06
1.03472e-06
1.03326e-06
1.0333e-06
1.03334e-06
1.03336e-06
1.03337e-06
1.03336e-06
1.03334e-06
1.0333e-06
1.03326e-06
1.03499e-06
1.03568e-06
1.03548e-06
1.03457e-06
1.03329e-06
1.03331e-06
1.03334e-06
1.03334e-06
1.03334e-06
1.03331e-06
1.03329e-06
1.03479e-06
1.03498e-06
1.03565e-06
1.0355e-06
1.03486e-06
1.03456e-06
1.03329e-06
1.0333e-06
1.03332e-06
1.0333e-06
1.03329e-06
1.03476e-06
1.03491e-06
1.03502e-06
1.03549e-06
1.03486e-06
1.03458e-06
1.03326e-06
1.03327e-06
1.03326e-06
1.03479e-06
1.03491e-06
1.035e-06
1.03563e-06
1.03549e-06
1.03494e-06
1.03499e-06
1.03499e-06
1.03499e-06
1.03498e-06
1.03502e-06
1.03563e-06
1.03551e-06
1.03566e-06
1.03568e-06
1.03568e-06
1.03565e-06
1.02653e-06
1.0258e-06
1.02573e-06
1.02578e-06
1.02654e-06
1.02657e-06
1.02655e-06
1.0259e-06
1.02547e-06
1.02431e-06
1.02431e-06
1.02431e-06
1.02562e-06
1.02592e-06
1.02656e-06
1.0259e-06
1.02544e-06
1.02432e-06
1.02433e-06
1.02434e-06
1.02433e-06
1.02432e-06
1.0256e-06
1.02592e-06
1.02656e-06
1.02653e-06
1.02547e-06
1.02432e-06
1.02434e-06
1.02436e-06
1.02436e-06
1.02436e-06
1.02434e-06
1.02432e-06
1.02563e-06
1.026e-06
1.02658e-06
1.0258e-06
1.02431e-06
1.02433e-06
1.02436e-06
1.02437e-06
1.02438e-06
1.02437e-06
1.02436e-06
1.02433e-06
1.02431e-06
1.02605e-06
1.02673e-06
1.02573e-06
1.02431e-06
1.02434e-06
1.02436e-06
1.02438e-06
1.02438e-06
1.02438e-06
1.02436e-06
1.02434e-06
1.02431e-06
1.02605e-06
1.02674e-06
1.02578e-06
1.02431e-06
1.02433e-06
1.02436e-06
1.02437e-06
1.02438e-06
1.02437e-06
1.02436e-06
1.02433e-06
1.02431e-06
1.02605e-06
1.02675e-06
1.02654e-06
1.02562e-06
1.02432e-06
1.02434e-06
1.02436e-06
1.02436e-06
1.02436e-06
1.02434e-06
1.02432e-06
1.02584e-06
1.02605e-06
1.02672e-06
1.02657e-06
1.02592e-06
1.0256e-06
1.02432e-06
1.02433e-06
1.02434e-06
1.02433e-06
1.02432e-06
1.02581e-06
1.02597e-06
1.02609e-06
1.02656e-06
1.02592e-06
1.02563e-06
1.02431e-06
1.02431e-06
1.02431e-06
1.02584e-06
1.02597e-06
1.02607e-06
1.0267e-06
1.02656e-06
1.026e-06
1.02605e-06
1.02605e-06
1.02605e-06
1.02605e-06
1.02609e-06
1.0267e-06
1.02658e-06
1.02673e-06
1.02674e-06
1.02674e-06
1.02672e-06
1.0176e-06
1.01686e-06
1.0168e-06
1.01684e-06
1.01761e-06
1.01763e-06
1.01762e-06
1.01696e-06
1.01653e-06
1.01537e-06
1.01537e-06
1.01537e-06
1.01668e-06
1.01698e-06
1.01762e-06
1.01696e-06
1.0165e-06
1.01537e-06
1.01538e-06
1.01538e-06
1.01538e-06
1.01537e-06
1.01666e-06
1.01698e-06
1.01763e-06
1.0176e-06
1.01653e-06
1.01537e-06
1.01538e-06
1.01539e-06
1.01539e-06
1.01539e-06
1.01538e-06
1.01537e-06
1.01669e-06
1.01706e-06
1.01765e-06
1.01686e-06
1.01537e-06
1.01538e-06
1.01539e-06
1.0154e-06
1.01541e-06
1.0154e-06
1.01539e-06
1.01538e-06
1.01537e-06
1.01712e-06
1.01779e-06
1.0168e-06
1.01537e-06
1.01538e-06
1.01539e-06
1.01541e-06
1.01541e-06
1.01541e-06
1.01539e-06
1.01538e-06
1.01537e-06
1.01711e-06
1.01781e-06
1.01684e-06
1.01537e-06
1.01538e-06
1.01539e-06
1.0154e-06
1.01541e-06
1.0154e-06
1.01539e-06
1.01538e-06
1.01537e-06
1.01711e-06
1.01781e-06
1.01761e-06
1.01668e-06
1.01537e-06
1.01538e-06
1.01539e-06
1.01539e-06
1.01539e-06
1.01538e-06
1.01537e-06
1.0169e-06
1.01711e-06
1.01778e-06
1.01763e-06
1.01698e-06
1.01666e-06
1.01537e-06
1.01538e-06
1.01538e-06
1.01538e-06
1.01537e-06
1.01687e-06
1.01703e-06
1.01716e-06
1.01762e-06
1.01698e-06
1.01669e-06
1.01537e-06
1.01537e-06
1.01537e-06
1.0169e-06
1.01703e-06
1.01713e-06
1.01777e-06
1.01762e-06
1.01706e-06
1.01712e-06
1.01711e-06
1.01711e-06
1.01711e-06
1.01716e-06
1.01777e-06
1.01765e-06
1.01779e-06
1.01781e-06
1.01781e-06
1.01778e-06
1.00866e-06
1.00792e-06
1.00786e-06
1.00791e-06
1.00867e-06
1.0087e-06
1.00868e-06
1.00803e-06
1.0076e-06
1.00643e-06
1.00643e-06
1.00643e-06
1.00775e-06
1.00804e-06
1.00869e-06
1.00803e-06
1.00756e-06
1.00643e-06
1.00643e-06
1.00644e-06
1.00643e-06
1.00643e-06
1.00773e-06
1.00804e-06
1.00869e-06
1.00866e-06
1.0076e-06
1.00643e-06
1.00644e-06
1.00644e-06
1.00644e-06
1.00644e-06
1.00644e-06
1.00643e-06
1.00775e-06
1.00813e-06
1.00871e-06
1.00792e-06
1.00643e-06
1.00643e-06
1.00644e-06
1.00645e-06
1.00645e-06
1.00645e-06
1.00644e-06
1.00643e-06
1.00643e-06
1.00818e-06
1.00886e-06
1.00786e-06
1.00643e-06
1.00644e-06
1.00644e-06
1.00645e-06
1.00645e-06
1.00645e-06
1.00644e-06
1.00644e-06
1.00643e-06
1.00817e-06
1.00887e-06
1.00791e-06
1.00643e-06
1.00643e-06
1.00644e-06
1.00645e-06
1.00645e-06
1.00645e-06
1.00644e-06
1.00643e-06
1.00643e-06
1.00817e-06
1.00887e-06
1.00867e-06
1.00775e-06
1.00643e-06
1.00644e-06
1.00644e-06
1.00644e-06
1.00644e-06
1.00644e-06
1.00643e-06
1.00796e-06
1.00817e-06
1.00885e-06
1.0087e-06
1.00804e-06
1.00772e-06
1.00643e-06
1.00643e-06
1.00644e-06
1.00643e-06
1.00643e-06
1.00793e-06
1.00809e-06
1.00822e-06
1.00869e-06
1.00804e-06
1.00775e-06
1.00643e-06
1.00643e-06
1.00643e-06
1.00796e-06
1.00809e-06
1.0082e-06
1.00883e-06
1.00869e-06
1.00813e-06
1.00818e-06
1.00817e-06
1.00817e-06
1.00817e-06
1.00822e-06
1.00883e-06
1.00871e-06
1.00886e-06
1.00887e-06
1.00887e-06
1.00885e-06
9.99727e-07
9.98986e-07
9.98923e-07
9.98971e-07
9.99735e-07
9.99759e-07
9.99744e-07
9.99091e-07
9.98659e-07
9.97488e-07
9.97489e-07
9.97488e-07
9.9881e-07
9.99108e-07
9.9975e-07
9.99091e-07
9.98623e-07
9.9749e-07
9.97493e-07
9.97493e-07
9.97493e-07
9.9749e-07
9.98787e-07
9.99105e-07
9.99753e-07
9.99727e-07
9.9866e-07
9.9749e-07
9.97494e-07
9.97496e-07
9.97497e-07
9.97496e-07
9.97494e-07
9.9749e-07
9.98812e-07
9.99191e-07
9.99774e-07
9.98986e-07
9.97488e-07
9.97493e-07
9.97496e-07
9.975e-07
9.97501e-07
9.975e-07
9.97496e-07
9.97493e-07
9.97488e-07
9.99245e-07
9.99921e-07
9.98923e-07
9.97489e-07
9.97493e-07
9.97497e-07
9.97501e-07
9.97502e-07
9.97501e-07
9.97497e-07
9.97493e-07
9.97489e-07
9.99235e-07
9.99937e-07
9.98972e-07
9.97488e-07
9.97493e-07
9.97496e-07
9.975e-07
9.97501e-07
9.975e-07
9.97496e-07
9.97493e-07
9.97488e-07
9.99238e-07
9.99938e-07
9.99735e-07
9.9881e-07
9.9749e-07
9.97494e-07
9.97496e-07
9.97497e-07
9.97496e-07
9.97494e-07
9.9749e-07
9.99026e-07
9.99238e-07
9.99912e-07
9.99759e-07
9.99108e-07
9.98787e-07
9.9749e-07
9.97493e-07
9.97493e-07
9.97493e-07
9.9749e-07
9.98994e-07
9.99158e-07
9.99283e-07
9.9975e-07
9.99105e-07
9.98812e-07
9.97488e-07
9.97489e-07
9.97488e-07
9.99027e-07
9.99158e-07
9.99259e-07
9.99894e-07
9.99753e-07
9.99191e-07
9.99245e-07
9.99235e-07
9.99238e-07
9.99238e-07
9.99284e-07
9.99894e-07
9.99774e-07
9.99921e-07
9.99937e-07
9.99938e-07
9.99912e-07
9.9079e-07
9.9005e-07
9.89987e-07
9.90035e-07
9.90798e-07
9.90823e-07
9.90807e-07
9.90154e-07
9.89723e-07
9.88551e-07
9.88551e-07
9.88551e-07
9.89873e-07
9.90171e-07
9.90814e-07
9.90154e-07
9.89686e-07
9.88552e-07
9.88554e-07
9.88554e-07
9.88554e-07
9.88552e-07
9.8985e-07
9.90169e-07
9.90817e-07
9.9079e-07
9.89723e-07
9.88552e-07
9.88554e-07
9.88555e-07
9.88556e-07
9.88555e-07
9.88554e-07
9.88552e-07
9.89875e-07
9.90254e-07
9.90838e-07
9.9005e-07
9.88551e-07
9.88554e-07
9.88555e-07
9.88557e-07
9.88558e-07
9.88557e-07
9.88555e-07
9.88554e-07
9.88551e-07
9.90308e-07
9.90985e-07
9.89987e-07
9.88551e-07
9.88554e-07
9.88556e-07
9.88558e-07
9.88558e-07
9.88558e-07
9.88556e-07
9.88554e-07
9.88551e-07
9.90298e-07
9.91001e-07
9.90035e-07
9.88551e-07
9.88554e-07
9.88555e-07
9.88557e-07
9.88558e-07
9.88557e-07
9.88555e-07
9.88554e-07
9.88551e-07
9.90301e-07
9.91001e-07
9.90799e-07
9.89873e-07
9.88552e-07
9.88554e-07
9.88555e-07
9.88556e-07
9.88555e-07
9.88554e-07
9.88552e-07
9.9009e-07
9.90302e-07
9.90976e-07
9.90823e-07
9.90171e-07
9.8985e-07
9.88552e-07
9.88554e-07
9.88554e-07
9.88554e-07
9.88552e-07
9.90057e-07
9.90221e-07
9.90347e-07
9.90814e-07
9.90169e-07
9.89875e-07
9.88551e-07
9.88551e-07
9.88551e-07
9.9009e-07
9.90221e-07
9.90323e-07
9.90958e-07
9.90817e-07
9.90255e-07
9.90308e-07
9.90298e-07
9.90302e-07
9.90302e-07
9.90347e-07
9.90958e-07
9.90838e-07
9.90985e-07
9.91001e-07
9.91001e-07
9.90976e-07
9.81854e-07
9.81113e-07
9.8105e-07
9.81098e-07
9.81862e-07
9.81886e-07
9.81871e-07
9.81217e-07
9.80786e-07
9.79614e-07
9.79614e-07
9.79614e-07
9.80936e-07
9.81234e-07
9.81877e-07
9.81217e-07
9.80749e-07
9.79614e-07
9.79616e-07
9.79616e-07
9.79616e-07
9.79614e-07
9.80913e-07
9.81232e-07
9.8188e-07
9.81854e-07
9.80786e-07
9.79614e-07
9.79616e-07
9.79616e-07
9.79617e-07
9.79616e-07
9.79616e-07
9.79614e-07
9.80938e-07
9.81318e-07
9.81901e-07
9.81113e-07
9.79614e-07
9.79616e-07
9.79616e-07
9.79618e-07
9.79618e-07
9.79618e-07
9.79616e-07
9.79616e-07
9.79614e-07
9.81371e-07
9.82048e-07
9.8105e-07
9.79614e-07
9.79616e-07
9.79617e-07
9.79618e-07
9.79618e-07
9.79618e-07
9.79617e-07
9.79616e-07
9.79614e-07
9.81362e-07
9.82064e-07
9.81098e-07
9.79614e-07
9.79616e-07
9.79616e-07
9.79618e-07
9.79618e-07
9.79618e-07
9.79616e-07
9.79616e-07
9.79614e-07
9.81365e-07
9.82064e-07
9.81862e-07
9.80936e-07
9.79614e-07
9.79616e-07
9.79616e-07
9.79617e-07
9.79616e-07
9.79616e-07
9.79614e-07
9.81153e-07
9.81365e-07
9.82039e-07
9.81886e-07
9.81234e-07
9.80913e-07
9.79614e-07
9.79616e-07
9.79616e-07
9.79616e-07
9.79614e-07
9.8112e-07
9.81285e-07
9.81411e-07
9.81877e-07
9.81232e-07
9.80938e-07
9.79614e-07
9.79614e-07
9.79614e-07
9.81152e-07
9.81284e-07
9.81386e-07
9.82021e-07
9.8188e-07
9.81318e-07
9.81371e-07
9.81362e-07
9.81365e-07
9.81365e-07
9.8141e-07
9.82021e-07
9.81901e-07
9.82048e-07
9.82064e-07
9.82064e-07
9.82039e-07
9.72917e-07
9.72176e-07
9.72113e-07
9.72161e-07
9.72925e-07
9.7295e-07
9.72934e-07
9.72281e-07
9.71849e-07
9.70677e-07
9.70677e-07
9.70677e-07
9.71999e-07
9.72298e-07
9.72941e-07
9.72281e-07
9.71812e-07
9.70677e-07
9.70679e-07
9.70678e-07
9.70679e-07
9.70677e-07
9.71977e-07
9.72295e-07
9.72944e-07
9.72917e-07
9.71849e-07
9.70677e-07
9.70678e-07
9.70678e-07
9.70679e-07
9.70678e-07
9.70678e-07
9.70677e-07
9.72002e-07
9.72381e-07
9.72964e-07
9.72176e-07
9.70677e-07
9.70679e-07
9.70678e-07
9.7068e-07
9.70679e-07
9.70679e-07
9.70678e-07
9.70679e-07
9.70677e-07
9.72434e-07
9.73111e-07
9.72113e-07
9.70677e-07
9.70678e-07
9.70679e-07
9.70679e-07
9.7068e-07
9.70679e-07
9.70679e-07
9.70678e-07
9.70677e-07
9.72425e-07
9.73127e-07
9.72161e-07
9.70677e-07
9.70679e-07
9.70678e-07
9.7068e-07
9.70679e-07
9.7068e-07
9.70678e-07
9.70679e-07
9.70677e-07
9.72428e-07
9.73128e-07
9.72925e-07
9.71999e-07
9.70677e-07
9.70678e-07
9.70678e-07
9.70679e-07
9.70678e-07
9.70678e-07
9.70677e-07
9.72216e-07
9.72428e-07
9.73102e-07
9.7295e-07
9.72298e-07
9.71976e-07
9.70677e-07
9.70679e-07
9.70678e-07
9.70679e-07
9.70677e-07
9.72183e-07
9.72348e-07
9.72474e-07
9.7294e-07
9.72295e-07
9.72002e-07
9.70677e-07
9.70677e-07
9.70677e-07
9.72216e-07
9.72348e-07
9.72449e-07
9.73084e-07
9.72944e-07
9.72381e-07
9.72434e-07
9.72425e-07
9.72428e-07
9.72428e-07
9.72474e-07
9.73084e-07
9.72964e-07
9.73111e-07
9.73127e-07
9.73128e-07
9.73102e-07
9.6398e-07
9.63239e-07
9.63176e-07
9.63225e-07
9.63989e-07
9.64013e-07
9.63998e-07
9.63344e-07
9.62912e-07
9.6174e-07
9.6174e-07
9.6174e-07
9.63063e-07
9.63361e-07
9.64004e-07
9.63344e-07
9.62876e-07
9.6174e-07
9.61742e-07
9.61741e-07
9.61742e-07
9.6174e-07
9.6304e-07
9.63359e-07
9.64007e-07
9.6398e-07
9.62912e-07
9.6174e-07
9.61741e-07
9.61741e-07
9.61741e-07
9.61741e-07
9.61741e-07
9.6174e-07
9.63065e-07
9.63444e-07
9.64028e-07
9.63239e-07
9.6174e-07
9.61742e-07
9.61741e-07
9.61742e-07
9.61741e-07
9.61742e-07
9.61741e-07
9.61742e-07
9.6174e-07
9.63498e-07
9.64175e-07
9.63176e-07
9.6174e-07
9.61741e-07
9.61741e-07
9.61741e-07
9.61742e-07
9.61741e-07
9.61741e-07
9.61741e-07
9.6174e-07
9.63488e-07
9.64191e-07
9.63224e-07
9.6174e-07
9.61742e-07
9.61741e-07
9.61742e-07
9.61741e-07
9.61742e-07
9.61741e-07
9.61742e-07
9.6174e-07
9.63491e-07
9.64191e-07
9.63988e-07
9.63062e-07
9.6174e-07
9.61741e-07
9.61741e-07
9.61741e-07
9.61741e-07
9.61741e-07
9.6174e-07
9.63279e-07
9.63492e-07
9.64166e-07
9.64013e-07
9.63361e-07
9.6304e-07
9.6174e-07
9.61742e-07
9.61741e-07
9.61742e-07
9.6174e-07
9.63246e-07
9.63411e-07
9.63537e-07
9.64004e-07
9.63359e-07
9.63065e-07
9.6174e-07
9.6174e-07
9.6174e-07
9.63279e-07
9.63411e-07
9.63513e-07
9.64148e-07
9.64007e-07
9.63444e-07
9.63498e-07
9.63488e-07
9.63491e-07
9.63491e-07
9.63537e-07
9.64147e-07
9.64028e-07
9.64174e-07
9.64191e-07
9.64191e-07
9.64166e-07
9.55044e-07
9.54303e-07
9.5424e-07
9.54288e-07
9.55052e-07
9.55076e-07
9.55061e-07
9.54407e-07
9.53975e-07
9.52803e-07
9.52804e-07
9.52803e-07
9.54126e-07
9.54424e-07
9.55067e-07
9.54407e-07
9.53939e-07
9.52803e-07
9.52805e-07
9.52804e-07
9.52805e-07
9.52803e-07
9.54103e-07
9.54422e-07
9.5507e-07
9.55044e-07
9.53975e-07
9.52803e-07
9.52804e-07
9.52804e-07
9.52804e-07
9.52804e-07
9.52804e-07
9.52803e-07
9.54128e-07
9.54508e-07
9.55091e-07
9.54303e-07
9.52803e-07
9.52805e-07
9.52804e-07
9.52805e-07
9.52804e-07
9.52805e-07
9.52804e-07
9.52805e-07
9.52803e-07
9.54561e-07
9.55238e-07
9.5424e-07
9.52803e-07
9.52804e-07
9.52804e-07
9.52804e-07
9.52805e-07
9.52804e-07
9.52804e-07
9.52804e-07
9.52804e-07
9.54551e-07
9.55254e-07
9.54288e-07
9.52803e-07
9.52805e-07
9.52804e-07
9.52805e-07
9.52804e-07
9.52805e-07
9.52804e-07
9.52805e-07
9.52803e-07
9.54554e-07
9.55254e-07
9.55052e-07
9.54126e-07
9.52803e-07
9.52804e-07
9.52804e-07
9.52804e-07
9.52804e-07
9.52804e-07
9.52803e-07
9.54342e-07
9.54555e-07
9.55229e-07
9.55076e-07
9.54424e-07
9.54103e-07
9.52803e-07
9.52805e-07
9.52804e-07
9.52805e-07
9.52803e-07
9.54309e-07
9.54474e-07
9.546e-07
9.55067e-07
9.54422e-07
9.54128e-07
9.52803e-07
9.52803e-07
9.52803e-07
9.54342e-07
9.54474e-07
9.54576e-07
9.55211e-07
9.5507e-07
9.54508e-07
9.54561e-07
9.54551e-07
9.54554e-07
9.54555e-07
9.546e-07
9.55211e-07
9.55091e-07
9.55238e-07
9.55254e-07
9.55254e-07
9.55229e-07
9.46107e-07
9.45366e-07
9.45303e-07
9.45351e-07
9.46115e-07
9.46139e-07
9.46124e-07
9.45471e-07
9.45039e-07
9.43866e-07
9.43867e-07
9.43866e-07
9.45189e-07
9.45488e-07
9.4613e-07
9.45471e-07
9.45002e-07
9.43866e-07
9.43868e-07
9.43867e-07
9.43868e-07
9.43866e-07
9.45166e-07
9.45485e-07
9.46134e-07
9.46107e-07
9.45039e-07
9.43867e-07
9.43867e-07
9.43867e-07
9.43867e-07
9.43867e-07
9.43867e-07
9.43867e-07
9.45191e-07
9.45571e-07
9.46154e-07
9.45366e-07
9.43866e-07
9.43868e-07
9.43867e-07
9.43868e-07
9.43867e-07
9.43868e-07
9.43867e-07
9.43868e-07
9.43866e-07
9.45624e-07
9.46301e-07
9.45303e-07
9.43867e-07
9.43867e-07
9.43867e-07
9.43867e-07
9.43867e-07
9.43867e-07
9.43867e-07
9.43867e-07
9.43867e-07
9.45614e-07
9.46317e-07
9.45351e-07
9.43866e-07
9.43868e-07
9.43867e-07
9.43868e-07
9.43867e-07
9.43868e-07
9.43867e-07
9.43868e-07
9.43866e-07
9.45618e-07
9.46318e-07
9.46115e-07
9.45189e-07
9.43867e-07
9.43867e-07
9.43867e-07
9.43867e-07
9.43867e-07
9.43867e-07
9.43867e-07
9.45406e-07
9.45618e-07
9.46292e-07
9.46139e-07
9.45488e-07
9.45166e-07
9.43867e-07
9.43868e-07
9.43867e-07
9.43868e-07
9.43866e-07
9.45372e-07
9.45538e-07
9.45664e-07
9.4613e-07
9.45485e-07
9.45191e-07
9.43866e-07
9.43867e-07
9.43866e-07
9.45406e-07
9.45538e-07
9.45639e-07
9.46274e-07
9.46134e-07
9.45571e-07
9.45624e-07
9.45614e-07
9.45618e-07
9.45618e-07
9.45664e-07
9.46274e-07
9.46154e-07
9.46301e-07
9.46317e-07
9.46318e-07
9.46292e-07
9.3717e-07
9.36429e-07
9.36366e-07
9.36414e-07
9.37178e-07
9.37203e-07
9.37187e-07
9.36534e-07
9.36102e-07
9.34929e-07
9.3493e-07
9.34929e-07
9.36252e-07
9.36551e-07
9.37194e-07
9.36534e-07
9.36065e-07
9.3493e-07
9.34931e-07
9.3493e-07
9.34931e-07
9.3493e-07
9.36229e-07
9.36548e-07
9.37197e-07
9.3717e-07
9.36102e-07
9.3493e-07
9.3493e-07
9.3493e-07
9.3493e-07
9.3493e-07
9.3493e-07
9.3493e-07
9.36255e-07
9.36634e-07
9.37217e-07
9.36429e-07
9.34929e-07
9.34931e-07
9.3493e-07
9.34931e-07
9.3493e-07
9.34931e-07
9.3493e-07
9.34931e-07
9.34929e-07
9.36687e-07
9.37364e-07
9.36366e-07
9.3493e-07
9.3493e-07
9.3493e-07
9.3493e-07
9.3493e-07
9.3493e-07
9.3493e-07
9.3493e-07
9.3493e-07
9.36678e-07
9.3738e-07
9.36414e-07
9.34929e-07
9.34931e-07
9.3493e-07
9.34931e-07
9.3493e-07
9.34931e-07
9.3493e-07
9.34931e-07
9.34929e-07
9.36681e-07
9.37381e-07
9.37178e-07
9.36252e-07
9.3493e-07
9.34931e-07
9.3493e-07
9.3493e-07
9.3493e-07
9.3493e-07
9.3493e-07
9.36469e-07
9.36681e-07
9.37355e-07
9.37203e-07
9.36551e-07
9.36229e-07
9.3493e-07
9.34931e-07
9.3493e-07
9.34931e-07
9.3493e-07
9.36436e-07
9.36601e-07
9.36727e-07
9.37194e-07
9.36548e-07
9.36255e-07
9.34929e-07
9.3493e-07
9.34929e-07
9.36469e-07
9.36601e-07
9.36702e-07
9.37337e-07
9.37197e-07
9.36634e-07
9.36687e-07
9.36678e-07
9.36681e-07
9.36681e-07
9.36727e-07
9.37337e-07
9.37218e-07
9.37364e-07
9.3738e-07
9.37381e-07
9.37355e-07
9.28233e-07
9.27492e-07
9.27429e-07
9.27478e-07
9.28242e-07
9.28266e-07
9.28251e-07
9.27597e-07
9.27165e-07
9.25993e-07
9.25993e-07
9.25993e-07
9.27316e-07
9.27614e-07
9.28257e-07
9.27597e-07
9.27129e-07
9.25993e-07
9.25994e-07
9.25993e-07
9.25994e-07
9.25993e-07
9.27293e-07
9.27612e-07
9.2826e-07
9.28233e-07
9.27165e-07
9.25993e-07
9.25994e-07
9.25993e-07
9.25993e-07
9.25993e-07
9.25994e-07
9.25993e-07
9.27318e-07
9.27697e-07
9.28281e-07
9.27492e-07
9.25993e-07
9.25995e-07
9.25993e-07
9.25994e-07
9.25993e-07
9.25994e-07
9.25993e-07
9.25994e-07
9.25993e-07
9.27751e-07
9.28427e-07
9.27429e-07
9.25993e-07
9.25993e-07
9.25994e-07
9.25993e-07
9.25993e-07
9.25993e-07
9.25993e-07
9.25993e-07
9.25993e-07
9.27741e-07
9.28444e-07
9.27478e-07
9.25993e-07
9.25995e-07
9.25993e-07
9.25994e-07
9.25993e-07
9.25994e-07
9.25993e-07
9.25994e-07
9.25993e-07
9.27744e-07
9.28444e-07
9.28242e-07
9.27316e-07
9.25993e-07
9.25994e-07
9.25993e-07
9.25993e-07
9.25993e-07
9.25994e-07
9.25993e-07
9.27532e-07
9.27745e-07
9.28419e-07
9.28266e-07
9.27614e-07
9.27293e-07
9.25993e-07
9.25994e-07
9.25993e-07
9.25994e-07
9.25993e-07
9.27499e-07
9.27664e-07
9.2779e-07
9.28257e-07
9.27612e-07
9.27318e-07
9.25993e-07
9.25993e-07
9.25993e-07
9.27532e-07
9.27664e-07
9.27766e-07
9.28401e-07
9.2826e-07
9.27697e-07
9.27751e-07
9.27741e-07
9.27744e-07
9.27745e-07
9.2779e-07
9.28401e-07
9.28281e-07
9.28428e-07
9.28444e-07
9.28444e-07
9.28419e-07
9.19297e-07
9.18556e-07
9.18493e-07
9.18541e-07
9.19305e-07
9.19329e-07
9.19314e-07
9.1866e-07
9.18228e-07
9.17056e-07
9.17057e-07
9.17056e-07
9.18379e-07
9.18677e-07
9.1932e-07
9.1866e-07
9.18192e-07
9.17056e-07
9.17058e-07
9.17057e-07
9.17058e-07
9.17056e-07
9.18356e-07
9.18675e-07
9.19323e-07
9.19297e-07
9.18228e-07
9.17056e-07
9.17057e-07
9.17056e-07
9.17057e-07
9.17056e-07
9.17057e-07
9.17056e-07
9.18381e-07
9.18761e-07
9.19344e-07
9.18556e-07
9.17056e-07
9.17058e-07
9.17056e-07
9.17058e-07
9.17057e-07
9.17058e-07
9.17056e-07
9.17058e-07
9.17056e-07
9.18814e-07
9.19491e-07
9.18493e-07
9.17057e-07
9.17057e-07
9.17057e-07
9.17057e-07
9.17057e-07
9.17056e-07
9.17057e-07
9.17057e-07
9.17056e-07
9.18804e-07
9.19507e-07
9.18541e-07
9.17056e-07
9.17058e-07
9.17056e-07
9.17058e-07
9.17057e-07
9.17058e-07
9.17056e-07
9.17058e-07
9.17056e-07
9.18807e-07
9.19507e-07
9.19305e-07
9.18379e-07
9.17056e-07
9.17057e-07
9.17056e-07
9.17057e-07
9.17056e-07
9.17057e-07
9.17056e-07
9.18595e-07
9.18808e-07
9.19482e-07
9.19329e-07
9.18677e-07
9.18356e-07
9.17056e-07
9.17058e-07
9.17057e-07
9.17058e-07
9.17056e-07
9.18562e-07
9.18727e-07
9.18853e-07
9.1932e-07
9.18675e-07
9.18381e-07
9.17056e-07
9.17056e-07
9.17056e-07
9.18595e-07
9.18727e-07
9.18829e-07
9.19464e-07
9.19323e-07
9.18761e-07
9.18814e-07
9.18804e-07
9.18807e-07
9.18808e-07
9.18853e-07
9.19464e-07
9.19344e-07
9.19491e-07
9.19507e-07
9.19507e-07
9.19482e-07
9.1036e-07
9.09619e-07
9.09556e-07
9.09604e-07
9.10368e-07
9.10392e-07
9.10377e-07
9.09724e-07
9.09292e-07
9.08119e-07
9.0812e-07
9.08119e-07
9.09442e-07
9.09741e-07
9.10383e-07
9.09724e-07
9.09255e-07
9.0812e-07
9.08121e-07
9.0812e-07
9.08121e-07
9.0812e-07
9.09419e-07
9.09738e-07
9.10387e-07
9.1036e-07
9.09292e-07
9.08119e-07
9.0812e-07
9.0812e-07
9.0812e-07
9.0812e-07
9.0812e-07
9.0812e-07
9.09444e-07
9.09824e-07
9.10407e-07
9.09619e-07
9.08119e-07
9.08121e-07
9.0812e-07
9.08121e-07
9.0812e-07
9.08121e-07
9.0812e-07
9.08121e-07
9.08119e-07
9.09877e-07
9.10554e-07
9.09556e-07
9.0812e-07
9.0812e-07
9.0812e-07
9.0812e-07
9.0812e-07
9.0812e-07
9.0812e-07
9.0812e-07
9.0812e-07
9.09867e-07
9.1057e-07
9.09604e-07
9.08119e-07
9.08121e-07
9.0812e-07
9.08121e-07
9.0812e-07
9.08121e-07
9.0812e-07
9.08121e-07
9.08119e-07
9.09871e-07
9.10571e-07
9.10368e-07
9.09442e-07
9.08119e-07
9.0812e-07
9.0812e-07
9.0812e-07
9.0812e-07
9.0812e-07
9.0812e-07
9.09659e-07
9.09871e-07
9.10545e-07
9.10392e-07
9.09741e-07
9.09419e-07
9.08119e-07
9.08121e-07
9.0812e-07
9.08121e-07
9.08119e-07
9.09625e-07
9.09791e-07
9.09917e-07
9.10383e-07
9.09738e-07
9.09444e-07
9.08119e-07
9.0812e-07
9.08119e-07
9.09659e-07
9.09791e-07
9.09892e-07
9.10527e-07
9.10387e-07
9.09824e-07
9.09877e-07
9.09867e-07
9.09871e-07
9.09871e-07
9.09917e-07
9.10527e-07
9.10407e-07
9.10554e-07
9.1057e-07
9.10571e-07
9.10545e-07
9.01423e-07
9.00682e-07
9.00619e-07
9.00667e-07
9.01431e-07
9.01456e-07
9.0144e-07
9.00787e-07
9.00355e-07
8.99182e-07
8.99183e-07
8.99182e-07
9.00505e-07
9.00804e-07
9.01447e-07
9.00787e-07
9.00318e-07
8.99183e-07
8.99184e-07
8.99183e-07
8.99184e-07
8.99183e-07
9.00483e-07
9.00802e-07
9.0145e-07
9.01423e-07
9.00355e-07
8.99183e-07
8.99183e-07
8.99183e-07
8.99183e-07
8.99183e-07
8.99184e-07
8.99183e-07
9.00508e-07
9.00887e-07
9.01471e-07
9.00682e-07
8.99182e-07
8.99184e-07
8.99183e-07
8.99184e-07
8.99183e-07
8.99184e-07
8.99183e-07
8.99184e-07
8.99182e-07
9.0094e-07
9.01617e-07
9.00619e-07
8.99183e-07
8.99183e-07
8.99183e-07
8.99183e-07
8.99183e-07
8.99183e-07
8.99183e-07
8.99183e-07
8.99183e-07
9.00931e-07
9.01633e-07
9.00667e-07
8.99182e-07
8.99184e-07
8.99183e-07
8.99184e-07
8.99183e-07
8.99184e-07
8.99183e-07
8.99184e-07
8.99182e-07
9.00934e-07
9.01634e-07
9.01431e-07
9.00505e-07
8.99183e-07
8.99183e-07
8.99183e-07
8.99183e-07
8.99183e-07
8.99183e-07
8.99183e-07
9.00722e-07
9.00934e-07
9.01609e-07
9.01456e-07
9.00804e-07
9.00482e-07
8.99183e-07
8.99184e-07
8.99183e-07
8.99184e-07
8.99183e-07
9.00689e-07
9.00854e-07
9.0098e-07
9.01447e-07
9.00801e-07
9.00508e-07
8.99182e-07
8.99183e-07
8.99182e-07
9.00722e-07
9.00854e-07
9.00956e-07
9.0159e-07
9.0145e-07
9.00887e-07
9.0094e-07
9.00931e-07
9.00934e-07
9.00934e-07
9.0098e-07
9.0159e-07
9.0147e-07
9.01617e-07
9.01633e-07
9.01634e-07
9.01608e-07
8.92486e-07
8.91745e-07
8.91682e-07
8.91731e-07
8.92495e-07
8.92519e-07
8.92504e-07
8.9185e-07
8.91418e-07
8.90246e-07
8.90246e-07
8.90246e-07
8.91569e-07
8.91867e-07
8.9251e-07
8.9185e-07
8.91382e-07
8.90246e-07
8.90248e-07
8.90246e-07
8.90248e-07
8.90246e-07
8.91546e-07
8.91865e-07
8.92513e-07
8.92486e-07
8.91418e-07
8.90246e-07
8.90247e-07
8.90246e-07
8.90247e-07
8.90246e-07
8.90247e-07
8.90246e-07
8.91571e-07
8.91951e-07
8.92534e-07
8.91745e-07
8.90246e-07
8.90247e-07
8.90246e-07
8.90247e-07
8.90246e-07
8.90247e-07
8.90246e-07
8.90248e-07
8.90246e-07
8.92004e-07
8.92681e-07
8.91682e-07
8.90246e-07
8.90246e-07
8.90246e-07
8.90246e-07
8.90246e-07
8.90246e-07
8.90247e-07
8.90246e-07
8.90246e-07
8.91994e-07
8.92697e-07
8.91731e-07
8.90246e-07
8.90247e-07
8.90246e-07
8.90247e-07
8.90246e-07
8.90247e-07
8.90246e-07
8.90248e-07
8.90246e-07
8.91997e-07
8.92697e-07
8.92494e-07
8.91569e-07
8.90246e-07
8.90247e-07
8.90246e-07
8.90246e-07
8.90246e-07
8.90247e-07
8.90246e-07
8.91785e-07
8.91998e-07
8.92672e-07
8.92519e-07
8.91867e-07
8.91546e-07
8.90246e-07
8.90247e-07
8.90246e-07
8.90248e-07
8.90246e-07
8.91752e-07
8.91917e-07
8.92043e-07
8.9251e-07
8.91865e-07
8.91571e-07
8.90246e-07
8.90246e-07
8.90246e-07
8.91785e-07
8.91917e-07
8.92019e-07
8.92654e-07
8.92513e-07
8.9195e-07
8.92004e-07
8.91994e-07
8.91997e-07
8.91998e-07
8.92043e-07
8.92654e-07
8.92534e-07
8.92681e-07
8.92697e-07
8.92697e-07
8.92672e-07
8.8355e-07
8.82809e-07
8.82746e-07
8.82794e-07
8.83558e-07
8.83582e-07
8.83567e-07
8.82913e-07
8.82481e-07
8.81309e-07
8.8131e-07
8.81309e-07
8.82632e-07
8.8293e-07
8.83573e-07
8.82913e-07
8.82445e-07
8.81309e-07
8.81311e-07
8.8131e-07
8.81311e-07
8.81309e-07
8.82609e-07
8.82928e-07
8.83576e-07
8.8355e-07
8.82481e-07
8.81309e-07
8.8131e-07
8.81309e-07
8.8131e-07
8.81309e-07
8.8131e-07
8.81309e-07
8.82634e-07
8.83014e-07
8.83597e-07
8.82809e-07
8.81309e-07
8.81311e-07
8.81309e-07
8.81311e-07
8.81309e-07
8.81311e-07
8.81309e-07
8.81311e-07
8.81309e-07
8.83067e-07
8.83744e-07
8.82746e-07
8.81309e-07
8.8131e-07
8.8131e-07
8.81309e-07
8.8131e-07
8.81309e-07
8.8131e-07
8.8131e-07
8.8131e-07
8.83057e-07
8.8376e-07
8.82794e-07
8.81309e-07
8.81311e-07
8.81309e-07
8.81311e-07
8.8131e-07
8.81311e-07
8.81309e-07