/*--------------------------------*- C++ -*----------------------------------*\
| =========                 |                                                 |
| \\      /  F ield         | OpenFOAM: The Open Source CFD Toolbox           |
|  \\    /   O peration     | Version:  v2012                                 |
|   \\  /    A nd           | Website:  www.openfoam.com                      |
|    \\/     M anipulation  |                                                 |
\*---------------------------------------------------------------------------*/
FoamFile
{
    version     2.0;
    format      ascii;
    class       volScalarField;
    location    "69";
    object      p;
}
// * * * * * * * * * * * * * * * * * * * * * * * * * * * * * * * * * * * * * //

dimensions      [0 2 -2 0 0 0 0];


internalField   nonuniform List<scalar> 
292667
(
1.06641e-06
1.05745e-06
1.05678e-06
1.05683e-06
1.05774e-06
1.06727e-06
1.05766e-06
1.05535e-06
1.05399e-06
1.05343e-06
1.0535e-06
1.05423e-06
1.05579e-06
1.0583e-06
1.05766e-06
1.05468e-06
1.0528e-06
1.05176e-06
1.05132e-06
1.05138e-06
1.05195e-06
1.05315e-06
1.05526e-06
1.05847e-06
1.06641e-06
1.05535e-06
1.0528e-06
1.05127e-06
1.05042e-06
1.05005e-06
1.0501e-06
1.05058e-06
1.05157e-06
1.0533e-06
1.05614e-06
1.06588e-06
1.05745e-06
1.05399e-06
1.05176e-06
1.05042e-06
1.04966e-06
1.04933e-06
1.04938e-06
1.0498e-06
1.05069e-06
1.05221e-06
1.05472e-06
1.06079e-06
1.05678e-06
1.05343e-06
1.05132e-06
1.05005e-06
1.04933e-06
1.04902e-06
1.04906e-06
1.04947e-06
1.05031e-06
1.05175e-06
1.05414e-06
1.05927e-06
1.05683e-06
1.0535e-06
1.05138e-06
1.0501e-06
1.04938e-06
1.04906e-06
1.0491e-06
1.04951e-06
1.05036e-06
1.05182e-06
1.05422e-06
1.05957e-06
1.05774e-06
1.05423e-06
1.05195e-06
1.05058e-06
1.0498e-06
1.04947e-06
1.04951e-06
1.04995e-06
1.05085e-06
1.05242e-06
1.055e-06
1.06107e-06
1.06727e-06
1.05579e-06
1.05315e-06
1.05157e-06
1.05069e-06
1.05031e-06
1.05036e-06
1.05085e-06
1.05189e-06
1.0537e-06
1.05664e-06
1.06573e-06
1.0583e-06
1.05526e-06
1.0533e-06
1.05221e-06
1.05175e-06
1.05182e-06
1.05242e-06
1.0537e-06
1.05592e-06
1.06175e-06
1.05846e-06
1.05614e-06
1.05472e-06
1.05414e-06
1.05422e-06
1.055e-06
1.05664e-06
1.06175e-06
1.06588e-06
1.06079e-06
1.05927e-06
1.05957e-06
1.06107e-06
1.06573e-06
1.04229e-06
1.04163e-06
1.0416e-06
1.04165e-06
1.04232e-06
1.04218e-06
1.04232e-06
1.04181e-06
1.04148e-06
1.04032e-06
1.0403e-06
1.04032e-06
1.04164e-06
1.04187e-06
1.04237e-06
1.04181e-06
1.04146e-06
1.04036e-06
1.04031e-06
1.04036e-06
1.04031e-06
1.04036e-06
1.04162e-06
1.04186e-06
1.04236e-06
1.04229e-06
1.04148e-06
1.04036e-06
1.0403e-06
1.04033e-06
1.04031e-06
1.04033e-06
1.0403e-06
1.04036e-06
1.04162e-06
1.04189e-06
1.04238e-06
1.04163e-06
1.04032e-06
1.04031e-06
1.04033e-06
1.04029e-06
1.04029e-06
1.04029e-06
1.04033e-06
1.04031e-06
1.04032e-06
1.04205e-06
1.04255e-06
1.0416e-06
1.0403e-06
1.04036e-06
1.04031e-06
1.04029e-06
1.04028e-06
1.04029e-06
1.04031e-06
1.04036e-06
1.0403e-06
1.04207e-06
1.04249e-06
1.04165e-06
1.04032e-06
1.04031e-06
1.04033e-06
1.04029e-06
1.04029e-06
1.04029e-06
1.04033e-06
1.04031e-06
1.04032e-06
1.04207e-06
1.04251e-06
1.04232e-06
1.04164e-06
1.04036e-06
1.0403e-06
1.04033e-06
1.04031e-06
1.04033e-06
1.0403e-06
1.04036e-06
1.04182e-06
1.04196e-06
1.04251e-06
1.04218e-06
1.04187e-06
1.04162e-06
1.04036e-06
1.04031e-06
1.04036e-06
1.04031e-06
1.04036e-06
1.04179e-06
1.04193e-06
1.04192e-06
1.04237e-06
1.04186e-06
1.04162e-06
1.04032e-06
1.0403e-06
1.04032e-06
1.04182e-06
1.04193e-06
1.04196e-06
1.04247e-06
1.04236e-06
1.04189e-06
1.04205e-06
1.04207e-06
1.04207e-06
1.04196e-06
1.04192e-06
1.04247e-06
1.04238e-06
1.04255e-06
1.04249e-06
1.04251e-06
1.04251e-06
1.03343e-06
1.03272e-06
1.03266e-06
1.03271e-06
1.03344e-06
1.03346e-06
1.03344e-06
1.03283e-06
1.03243e-06
1.03132e-06
1.03131e-06
1.03132e-06
1.03259e-06
1.03286e-06
1.03345e-06
1.03283e-06
1.03241e-06
1.03136e-06
1.03136e-06
1.03139e-06
1.03136e-06
1.03136e-06
1.03259e-06
1.03286e-06
1.03346e-06
1.03343e-06
1.03243e-06
1.03136e-06
1.03138e-06
1.03142e-06
1.03142e-06
1.03142e-06
1.03138e-06
1.03136e-06
1.0326e-06
1.03292e-06
1.03348e-06
1.03272e-06
1.03132e-06
1.03136e-06
1.03142e-06
1.03143e-06
1.03145e-06
1.03143e-06
1.03142e-06
1.03136e-06
1.03132e-06
1.03299e-06
1.03363e-06
1.03266e-06
1.03131e-06
1.03139e-06
1.03142e-06
1.03145e-06
1.03145e-06
1.03145e-06
1.03142e-06
1.03139e-06
1.03131e-06
1.033e-06
1.03365e-06
1.03271e-06
1.03132e-06
1.03136e-06
1.03142e-06
1.03143e-06
1.03145e-06
1.03143e-06
1.03142e-06
1.03136e-06
1.03132e-06
1.033e-06
1.03365e-06
1.03344e-06
1.03259e-06
1.03136e-06
1.03138e-06
1.03142e-06
1.03142e-06
1.03142e-06
1.03138e-06
1.03136e-06
1.03281e-06
1.03297e-06
1.03362e-06
1.03346e-06
1.03286e-06
1.03259e-06
1.03136e-06
1.03136e-06
1.03139e-06
1.03136e-06
1.03136e-06
1.03279e-06
1.03292e-06
1.033e-06
1.03345e-06
1.03286e-06
1.0326e-06
1.03132e-06
1.03131e-06
1.03132e-06
1.03281e-06
1.03292e-06
1.03298e-06
1.03359e-06
1.03346e-06
1.03292e-06
1.03299e-06
1.033e-06
1.033e-06
1.03297e-06
1.033e-06
1.03359e-06
1.03348e-06
1.03363e-06
1.03365e-06
1.03365e-06
1.03362e-06
1.02459e-06
1.02387e-06
1.02381e-06
1.02386e-06
1.0246e-06
1.02462e-06
1.02461e-06
1.02397e-06
1.02356e-06
1.02243e-06
1.02243e-06
1.02243e-06
1.02371e-06
1.024e-06
1.02462e-06
1.02397e-06
1.02353e-06
1.02245e-06
1.02246e-06
1.02248e-06
1.02246e-06
1.02245e-06
1.0237e-06
1.024e-06
1.02462e-06
1.02459e-06
1.02356e-06
1.02245e-06
1.02247e-06
1.0225e-06
1.0225e-06
1.0225e-06
1.02247e-06
1.02245e-06
1.02372e-06
1.02407e-06
1.02464e-06
1.02387e-06
1.02243e-06
1.02246e-06
1.0225e-06
1.02252e-06
1.02253e-06
1.02252e-06
1.0225e-06
1.02246e-06
1.02243e-06
1.02413e-06
1.02479e-06
1.02381e-06
1.02243e-06
1.02248e-06
1.0225e-06
1.02253e-06
1.02254e-06
1.02253e-06
1.0225e-06
1.02248e-06
1.02243e-06
1.02413e-06
1.02481e-06
1.02386e-06
1.02243e-06
1.02246e-06
1.0225e-06
1.02252e-06
1.02253e-06
1.02252e-06
1.0225e-06
1.02246e-06
1.02243e-06
1.02413e-06
1.02481e-06
1.0246e-06
1.02371e-06
1.02245e-06
1.02247e-06
1.0225e-06
1.0225e-06
1.0225e-06
1.02247e-06
1.02245e-06
1.02393e-06
1.02412e-06
1.02478e-06
1.02462e-06
1.024e-06
1.0237e-06
1.02245e-06
1.02246e-06
1.02248e-06
1.02246e-06
1.02245e-06
1.02391e-06
1.02405e-06
1.02416e-06
1.02462e-06
1.024e-06
1.02372e-06
1.02243e-06
1.02243e-06
1.02243e-06
1.02393e-06
1.02405e-06
1.02414e-06
1.02476e-06
1.02462e-06
1.02407e-06
1.02413e-06
1.02413e-06
1.02413e-06
1.02412e-06
1.02416e-06
1.02476e-06
1.02464e-06
1.02479e-06
1.02481e-06
1.02481e-06
1.02478e-06
1.01575e-06
1.01503e-06
1.01497e-06
1.01501e-06
1.01576e-06
1.01579e-06
1.01577e-06
1.01513e-06
1.01471e-06
1.01357e-06
1.01357e-06
1.01357e-06
1.01486e-06
1.01515e-06
1.01578e-06
1.01513e-06
1.01468e-06
1.01358e-06
1.01359e-06
1.0136e-06
1.01359e-06
1.01358e-06
1.01484e-06
1.01515e-06
1.01578e-06
1.01575e-06
1.01471e-06
1.01358e-06
1.01359e-06
1.01361e-06
1.01361e-06
1.01361e-06
1.01359e-06
1.01358e-06
1.01486e-06
1.01523e-06
1.0158e-06
1.01503e-06
1.01357e-06
1.01359e-06
1.01361e-06
1.01362e-06
1.01363e-06
1.01362e-06
1.01361e-06
1.01359e-06
1.01357e-06
1.01529e-06
1.01595e-06
1.01497e-06
1.01357e-06
1.0136e-06
1.01361e-06
1.01363e-06
1.01364e-06
1.01363e-06
1.01361e-06
1.0136e-06
1.01357e-06
1.01528e-06
1.01597e-06
1.01501e-06
1.01357e-06
1.01359e-06
1.01361e-06
1.01362e-06
1.01363e-06
1.01362e-06
1.01361e-06
1.01359e-06
1.01357e-06
1.01528e-06
1.01597e-06
1.01576e-06
1.01486e-06
1.01358e-06
1.01359e-06
1.01361e-06
1.01361e-06
1.01361e-06
1.01359e-06
1.01358e-06
1.01508e-06
1.01528e-06
1.01594e-06
1.01579e-06
1.01515e-06
1.01484e-06
1.01358e-06
1.01359e-06
1.0136e-06
1.01359e-06
1.01358e-06
1.01505e-06
1.0152e-06
1.01532e-06
1.01578e-06
1.01515e-06
1.01486e-06
1.01357e-06
1.01357e-06
1.01357e-06
1.01508e-06
1.0152e-06
1.0153e-06
1.01592e-06
1.01578e-06
1.01523e-06
1.01529e-06
1.01528e-06
1.01528e-06
1.01528e-06
1.01532e-06
1.01592e-06
1.0158e-06
1.01595e-06
1.01597e-06
1.01597e-06
1.01594e-06
1.00691e-06
1.00619e-06
1.00612e-06
1.00617e-06
1.00692e-06
1.00694e-06
1.00693e-06
1.00629e-06
1.00586e-06
1.00472e-06
1.00472e-06
1.00472e-06
1.00601e-06
1.00631e-06
1.00694e-06
1.00629e-06
1.00583e-06
1.00472e-06
1.00473e-06
1.00473e-06
1.00473e-06
1.00472e-06
1.00599e-06
1.0063e-06
1.00694e-06
1.00691e-06
1.00586e-06
1.00472e-06
1.00473e-06
1.00474e-06
1.00474e-06
1.00474e-06
1.00473e-06
1.00472e-06
1.00602e-06
1.00639e-06
1.00696e-06
1.00619e-06
1.00472e-06
1.00473e-06
1.00474e-06
1.00475e-06
1.00476e-06
1.00475e-06
1.00474e-06
1.00473e-06
1.00472e-06
1.00645e-06
1.00711e-06
1.00612e-06
1.00472e-06
1.00473e-06
1.00474e-06
1.00476e-06
1.00476e-06
1.00476e-06
1.00474e-06
1.00473e-06
1.00472e-06
1.00644e-06
1.00713e-06
1.00617e-06
1.00472e-06
1.00473e-06
1.00474e-06
1.00475e-06
1.00476e-06
1.00475e-06
1.00474e-06
1.00473e-06
1.00472e-06
1.00644e-06
1.00713e-06
1.00692e-06
1.00601e-06
1.00472e-06
1.00473e-06
1.00474e-06
1.00474e-06
1.00474e-06
1.00473e-06
1.00472e-06
1.00623e-06
1.00644e-06
1.0071e-06
1.00694e-06
1.00631e-06
1.00599e-06
1.00472e-06
1.00473e-06
1.00473e-06
1.00473e-06
1.00472e-06
1.0062e-06
1.00636e-06
1.00648e-06
1.00694e-06
1.0063e-06
1.00602e-06
1.00472e-06
1.00472e-06
1.00472e-06
1.00623e-06
1.00636e-06
1.00646e-06
1.00708e-06
1.00694e-06
1.00639e-06
1.00645e-06
1.00644e-06
1.00644e-06
1.00644e-06
1.00648e-06
1.00708e-06
1.00696e-06
1.00711e-06
1.00712e-06
1.00713e-06
1.0071e-06
9.9807e-07
9.97343e-07
9.97281e-07
9.97329e-07
9.9808e-07
9.98102e-07
9.98085e-07
9.97445e-07
9.97019e-07
9.9587e-07
9.95872e-07
9.95871e-07
9.9717e-07
9.97463e-07
9.98094e-07
9.97445e-07
9.96983e-07
9.95873e-07
9.95878e-07
9.95879e-07
9.95878e-07
9.95873e-07
9.97148e-07
9.97461e-07
9.98097e-07
9.98069e-07
9.97019e-07
9.95874e-07
9.95879e-07
9.95884e-07
9.95886e-07
9.95884e-07
9.95879e-07
9.95874e-07
9.97172e-07
9.97547e-07
9.98116e-07
9.97343e-07
9.95871e-07
9.95878e-07
9.95885e-07
9.9589e-07
9.95892e-07
9.9589e-07
9.95885e-07
9.95878e-07
9.9587e-07
9.97603e-07
9.98265e-07
9.97281e-07
9.95872e-07
9.95879e-07
9.95886e-07
9.95892e-07
9.95894e-07
9.95892e-07
9.95886e-07
9.95879e-07
9.95872e-07
9.97594e-07
9.98282e-07
9.97329e-07
9.95871e-07
9.95878e-07
9.95884e-07
9.9589e-07
9.95892e-07
9.9589e-07
9.95884e-07
9.95878e-07
9.95871e-07
9.97596e-07
9.98283e-07
9.9808e-07
9.9717e-07
9.95873e-07
9.95879e-07
9.95885e-07
9.95886e-07
9.95885e-07
9.95879e-07
9.95873e-07
9.97387e-07
9.97595e-07
9.98255e-07
9.98102e-07
9.97463e-07
9.97148e-07
9.95874e-07
9.95878e-07
9.95879e-07
9.95878e-07
9.95874e-07
9.97355e-07
9.97515e-07
9.97638e-07
9.98094e-07
9.97461e-07
9.97172e-07
9.95871e-07
9.95872e-07
9.95871e-07
9.97387e-07
9.97515e-07
9.97614e-07
9.98236e-07
9.98097e-07
9.97547e-07
9.97603e-07
9.97594e-07
9.97596e-07
9.97595e-07
9.97638e-07
9.98236e-07
9.98116e-07
9.98265e-07
9.98282e-07
9.98282e-07
9.98255e-07
9.89227e-07
9.885e-07
9.88437e-07
9.88485e-07
9.89238e-07
9.8926e-07
9.89243e-07
9.88602e-07
9.88175e-07
9.87026e-07
9.87027e-07
9.87026e-07
9.88326e-07
9.8862e-07
9.89251e-07
9.88602e-07
9.88139e-07
9.87027e-07
9.8703e-07
9.87031e-07
9.8703e-07
9.87027e-07
9.88304e-07
9.88618e-07
9.89255e-07
9.89227e-07
9.88176e-07
9.87027e-07
9.87031e-07
9.87033e-07
9.87034e-07
9.87033e-07
9.87031e-07
9.87027e-07
9.88328e-07
9.88704e-07
9.89274e-07
9.885e-07
9.87026e-07
9.8703e-07
9.87033e-07
9.87037e-07
9.87038e-07
9.87037e-07
9.87033e-07
9.8703e-07
9.87026e-07
9.88759e-07
9.89422e-07
9.88437e-07
9.87027e-07
9.87031e-07
9.87034e-07
9.87038e-07
9.87039e-07
9.87038e-07
9.87034e-07
9.87031e-07
9.87027e-07
9.88751e-07
9.89439e-07
9.88485e-07
9.87026e-07
9.8703e-07
9.87033e-07
9.87037e-07
9.87038e-07
9.87037e-07
9.87033e-07
9.87031e-07
9.87026e-07
9.88753e-07
9.8944e-07
9.89238e-07
9.88326e-07
9.87027e-07
9.87031e-07
9.87033e-07
9.87035e-07
9.87033e-07
9.87031e-07
9.87027e-07
9.88544e-07
9.88752e-07
9.89413e-07
9.8926e-07
9.8862e-07
9.88304e-07
9.87027e-07
9.8703e-07
9.87031e-07
9.87031e-07
9.87027e-07
9.88511e-07
9.88672e-07
9.88795e-07
9.89251e-07
9.88618e-07
9.88329e-07
9.87026e-07
9.87027e-07
9.87026e-07
9.88544e-07
9.88672e-07
9.88771e-07
9.89394e-07
9.89255e-07
9.88704e-07
9.88759e-07
9.88751e-07
9.88753e-07
9.88752e-07
9.88796e-07
9.89394e-07
9.89274e-07
9.89422e-07
9.89439e-07
9.8944e-07
9.89413e-07
9.80384e-07
9.79656e-07
9.79594e-07
9.79642e-07
9.80395e-07
9.80417e-07
9.804e-07
9.79759e-07
9.79332e-07
9.78182e-07
9.78182e-07
9.78182e-07
9.79483e-07
9.79777e-07
9.80409e-07
9.79759e-07
9.79295e-07
9.78183e-07
9.78185e-07
9.78185e-07
9.78185e-07
9.78183e-07
9.7946e-07
9.79775e-07
9.80412e-07
9.80384e-07
9.79332e-07
9.78183e-07
9.78185e-07
9.78186e-07
9.78187e-07
9.78186e-07
9.78185e-07
9.78183e-07
9.79485e-07
9.79861e-07
9.80431e-07
9.79656e-07
9.78182e-07
9.78185e-07
9.78186e-07
9.78188e-07
9.78189e-07
9.78188e-07
9.78186e-07
9.78185e-07
9.78182e-07
9.79916e-07
9.80579e-07
9.79594e-07
9.78182e-07
9.78185e-07
9.78187e-07
9.78189e-07
9.78189e-07
9.78189e-07
9.78187e-07
9.78185e-07
9.78182e-07
9.79907e-07
9.80596e-07
9.79642e-07
9.78182e-07
9.78185e-07
9.78186e-07
9.78188e-07
9.78189e-07
9.78188e-07
9.78186e-07
9.78185e-07
9.78182e-07
9.7991e-07
9.80597e-07
9.80395e-07
9.79483e-07
9.78183e-07
9.78185e-07
9.78186e-07
9.78187e-07
9.78186e-07
9.78185e-07
9.78183e-07
9.797e-07
9.79909e-07
9.80569e-07
9.80417e-07
9.79777e-07
9.7946e-07
9.78183e-07
9.78185e-07
9.78185e-07
9.78185e-07
9.78183e-07
9.79667e-07
9.79828e-07
9.79953e-07
9.80409e-07
9.79775e-07
9.79485e-07
9.78182e-07
9.78182e-07
9.78182e-07
9.797e-07
9.79828e-07
9.79928e-07
9.80551e-07
9.80412e-07
9.79861e-07
9.79916e-07
9.79907e-07
9.7991e-07
9.79909e-07
9.79953e-07
9.80551e-07
9.80431e-07
9.80579e-07
9.80596e-07
9.80597e-07
9.8057e-07
9.71541e-07
9.70813e-07
9.70751e-07
9.70799e-07
9.71551e-07
9.71573e-07
9.71557e-07
9.70916e-07
9.70489e-07
9.69338e-07
9.69339e-07
9.69338e-07
9.70639e-07
9.70934e-07
9.71566e-07
9.70916e-07
9.70452e-07
9.69339e-07
9.6934e-07
9.6934e-07
9.6934e-07
9.69339e-07
9.70617e-07
9.70931e-07
9.71569e-07
9.71541e-07
9.70489e-07
9.69339e-07
9.6934e-07
9.69341e-07
9.69341e-07
9.69341e-07
9.6934e-07
9.69339e-07
9.70642e-07
9.71017e-07
9.71587e-07
9.70813e-07
9.69338e-07
9.6934e-07
9.69341e-07
9.69342e-07
9.69342e-07
9.69342e-07
9.69341e-07
9.6934e-07
9.69338e-07
9.71073e-07
9.71736e-07
9.70751e-07
9.69339e-07
9.6934e-07
9.69341e-07
9.69342e-07
9.69343e-07
9.69342e-07
9.69341e-07
9.6934e-07
9.69339e-07
9.71064e-07
9.71753e-07
9.70799e-07
9.69338e-07
9.6934e-07
9.69341e-07
9.69342e-07
9.69342e-07
9.69342e-07
9.69341e-07
9.6934e-07
9.69338e-07
9.71067e-07
9.71754e-07
9.71551e-07
9.70639e-07
9.69339e-07
9.6934e-07
9.69341e-07
9.69341e-07
9.69341e-07
9.6934e-07
9.69339e-07
9.70857e-07
9.71065e-07
9.71726e-07
9.71574e-07
9.70934e-07
9.70617e-07
9.69339e-07
9.6934e-07
9.6934e-07
9.6934e-07
9.69339e-07
9.70824e-07
9.70985e-07
9.71109e-07
9.71566e-07
9.70931e-07
9.70642e-07
9.69338e-07
9.69339e-07
9.69338e-07
9.70857e-07
9.70985e-07
9.71085e-07
9.71708e-07
9.71569e-07
9.71017e-07
9.71073e-07
9.71064e-07
9.71067e-07
9.71065e-07
9.71109e-07
9.71708e-07
9.71587e-07
9.71736e-07
9.71753e-07
9.71754e-07
9.71726e-07
9.62698e-07
9.6197e-07
9.61908e-07
9.61956e-07
9.62708e-07
9.6273e-07
9.62714e-07
9.62072e-07
9.61645e-07
9.60495e-07
9.60495e-07
9.60494e-07
9.61796e-07
9.62091e-07
9.62722e-07
9.62072e-07
9.61609e-07
9.60495e-07
9.60497e-07
9.60496e-07
9.60497e-07
9.60495e-07
9.61773e-07
9.62088e-07
9.62726e-07
9.62698e-07
9.61645e-07
9.60495e-07
9.60496e-07
9.60496e-07
9.60497e-07
9.60496e-07
9.60496e-07
9.60495e-07
9.61799e-07
9.62174e-07
9.62744e-07
9.6197e-07
9.60494e-07
9.60497e-07
9.60496e-07
9.60497e-07
9.60497e-07
9.60497e-07
9.60496e-07
9.60497e-07
9.60494e-07
9.6223e-07
9.62893e-07
9.61908e-07
9.60495e-07
9.60496e-07
9.60497e-07
9.60497e-07
9.60497e-07
9.60497e-07
9.60497e-07
9.60496e-07
9.60495e-07
9.62221e-07
9.6291e-07
9.61956e-07
9.60494e-07
9.60497e-07
9.60496e-07
9.60498e-07
9.60497e-07
9.60497e-07
9.60496e-07
9.60497e-07
9.60494e-07
9.62223e-07
9.6291e-07
9.62708e-07
9.61796e-07
9.60495e-07
9.60496e-07
9.60496e-07
9.60497e-07
9.60496e-07
9.60496e-07
9.60495e-07
9.62014e-07
9.62222e-07
9.62883e-07
9.6273e-07
9.62091e-07
9.61773e-07
9.60495e-07
9.60497e-07
9.60496e-07
9.60497e-07
9.60495e-07
9.6198e-07
9.62142e-07
9.62266e-07
9.62722e-07
9.62088e-07
9.61799e-07
9.60494e-07
9.60495e-07
9.60494e-07
9.62014e-07
9.62142e-07
9.62242e-07
9.62865e-07
9.62726e-07
9.62174e-07
9.6223e-07
9.62221e-07
9.62223e-07
9.62222e-07
9.62266e-07
9.62865e-07
9.62744e-07
9.62893e-07
9.6291e-07
9.6291e-07
9.62883e-07
9.53854e-07
9.53127e-07
9.53064e-07
9.53112e-07
9.53865e-07
9.53887e-07
9.5387e-07
9.53229e-07
9.52802e-07
9.51651e-07
9.51652e-07
9.51651e-07
9.52953e-07
9.53247e-07
9.53879e-07
9.53229e-07
9.52765e-07
9.51652e-07
9.51653e-07
9.51652e-07
9.51653e-07
9.51652e-07
9.5293e-07
9.53245e-07
9.53883e-07
9.53854e-07
9.52802e-07
9.51652e-07
9.51653e-07
9.51652e-07
9.51653e-07
9.51652e-07
9.51653e-07
9.51652e-07
9.52955e-07
9.53331e-07
9.53901e-07
9.53127e-07
9.51651e-07
9.51653e-07
9.51652e-07
9.51654e-07
9.51653e-07
9.51654e-07
9.51652e-07
9.51653e-07
9.51651e-07
9.53386e-07
9.5405e-07
9.53064e-07
9.51652e-07
9.51652e-07
9.51653e-07
9.51653e-07
9.51653e-07
9.51653e-07
9.51653e-07
9.51652e-07
9.51652e-07
9.53377e-07
9.54067e-07
9.53112e-07
9.51651e-07
9.51653e-07
9.51652e-07
9.51654e-07
9.51653e-07
9.51654e-07
9.51652e-07
9.51653e-07
9.51651e-07
9.5338e-07
9.54067e-07
9.53865e-07
9.52953e-07
9.51652e-07
9.51653e-07
9.51652e-07
9.51653e-07
9.51652e-07
9.51652e-07
9.51652e-07
9.5317e-07
9.53379e-07
9.5404e-07
9.53887e-07
9.53247e-07
9.5293e-07
9.51652e-07
9.51653e-07
9.51652e-07
9.51653e-07
9.51652e-07
9.53137e-07
9.53299e-07
9.53423e-07
9.53879e-07
9.53245e-07
9.52955e-07
9.51651e-07
9.51652e-07
9.51651e-07
9.5317e-07
9.53299e-07
9.53399e-07
9.54022e-07
9.53882e-07
9.53331e-07
9.53386e-07
9.53377e-07
9.5338e-07
9.53379e-07
9.53423e-07
9.54021e-07
9.53901e-07
9.5405e-07
9.54067e-07
9.54067e-07
9.5404e-07
9.45011e-07
9.44283e-07
9.44221e-07
9.44269e-07
9.45022e-07
9.45044e-07
9.45027e-07
9.44386e-07
9.43959e-07
9.42808e-07
9.42808e-07
9.42808e-07
9.4411e-07
9.44404e-07
9.45036e-07
9.44386e-07
9.43922e-07
9.42808e-07
9.4281e-07
9.42809e-07
9.4281e-07
9.42808e-07
9.44087e-07
9.44402e-07
9.45039e-07
9.45011e-07
9.43959e-07
9.42808e-07
9.42809e-07
9.42809e-07
9.42809e-07
9.42809e-07
9.42809e-07
9.42808e-07
9.44112e-07
9.44488e-07
9.45058e-07
9.44283e-07
9.42808e-07
9.4281e-07
9.42809e-07
9.4281e-07
9.42809e-07
9.4281e-07
9.42809e-07
9.4281e-07
9.42808e-07
9.44543e-07
9.45207e-07
9.44221e-07
9.42808e-07
9.42809e-07
9.42809e-07
9.42809e-07
9.4281e-07
9.42809e-07
9.42809e-07
9.42809e-07
9.42808e-07
9.44534e-07
9.45224e-07
9.44269e-07
9.42808e-07
9.4281e-07
9.42809e-07
9.4281e-07
9.42809e-07
9.4281e-07
9.42809e-07
9.4281e-07
9.42808e-07
9.44537e-07
9.45224e-07
9.45022e-07
9.4411e-07
9.42808e-07
9.42809e-07
9.42809e-07
9.42809e-07
9.42809e-07
9.42809e-07
9.42808e-07
9.44327e-07
9.44536e-07
9.45197e-07
9.45044e-07
9.44404e-07
9.44087e-07
9.42808e-07
9.4281e-07
9.42809e-07
9.4281e-07
9.42808e-07
9.44294e-07
9.44455e-07
9.4458e-07
9.45036e-07
9.44402e-07
9.44112e-07
9.42808e-07
9.42808e-07
9.42808e-07
9.44327e-07
9.44455e-07
9.44555e-07
9.45178e-07
9.45039e-07
9.44488e-07
9.44543e-07
9.44534e-07
9.44537e-07
9.44536e-07
9.4458e-07
9.45178e-07
9.45058e-07
9.45206e-07
9.45224e-07
9.45224e-07
9.45197e-07
9.36168e-07
9.3544e-07
9.35378e-07
9.35426e-07
9.36179e-07
9.36201e-07
9.36184e-07
9.35543e-07
9.35116e-07
9.33965e-07
9.33965e-07
9.33965e-07
9.35266e-07
9.35561e-07
9.36193e-07
9.35543e-07
9.35079e-07
9.33965e-07
9.33967e-07
9.33965e-07
9.33967e-07
9.33965e-07
9.35244e-07
9.35559e-07
9.36196e-07
9.36168e-07
9.35116e-07
9.33965e-07
9.33966e-07
9.33965e-07
9.33966e-07
9.33965e-07
9.33966e-07
9.33965e-07
9.35269e-07
9.35645e-07
9.36215e-07
9.3544e-07
9.33965e-07
9.33967e-07
9.33965e-07
9.33967e-07
9.33966e-07
9.33967e-07
9.33965e-07
9.33967e-07
9.33965e-07
9.357e-07
9.36363e-07
9.35378e-07
9.33965e-07
9.33965e-07
9.33966e-07
9.33966e-07
9.33966e-07
9.33966e-07
9.33966e-07
9.33965e-07
9.33965e-07
9.35691e-07
9.3638e-07
9.35426e-07
9.33965e-07
9.33967e-07
9.33965e-07
9.33967e-07
9.33966e-07
9.33967e-07
9.33965e-07
9.33967e-07
9.33965e-07
9.35694e-07
9.36381e-07
9.36179e-07
9.35266e-07
9.33965e-07
9.33966e-07
9.33965e-07
9.33966e-07
9.33965e-07
9.33966e-07
9.33965e-07
9.35484e-07
9.35693e-07
9.36353e-07
9.36201e-07
9.35561e-07
9.35243e-07
9.33965e-07
9.33967e-07
9.33965e-07
9.33967e-07
9.33965e-07
9.35451e-07
9.35612e-07
9.35737e-07
9.36193e-07
9.35558e-07
9.35269e-07
9.33965e-07
9.33965e-07
9.33965e-07
9.35484e-07
9.35612e-07
9.35712e-07
9.36335e-07
9.36196e-07
9.35645e-07
9.357e-07
9.35691e-07
9.35694e-07
9.35693e-07
9.35737e-07
9.36335e-07
9.36215e-07
9.36363e-07
9.3638e-07
9.36381e-07
9.36353e-07
9.27325e-07
9.26597e-07
9.26535e-07
9.26583e-07
9.27335e-07
9.27357e-07
9.27341e-07
9.267e-07
9.26272e-07
9.25121e-07
9.25122e-07
9.25121e-07
9.26423e-07
9.26718e-07
9.2735e-07
9.267e-07
9.26236e-07
9.25122e-07
9.25123e-07
9.25122e-07
9.25123e-07
9.25122e-07
9.264e-07
9.26715e-07
9.27353e-07
9.27325e-07
9.26272e-07
9.25122e-07
9.25122e-07
9.25122e-07
9.25122e-07
9.25122e-07
9.25122e-07
9.25122e-07
9.26425e-07
9.26801e-07
9.27371e-07
9.26597e-07
9.25121e-07
9.25123e-07
9.25122e-07
9.25123e-07
9.25122e-07
9.25123e-07
9.25122e-07
9.25123e-07
9.25121e-07
9.26857e-07
9.2752e-07
9.26535e-07
9.25122e-07
9.25122e-07
9.25122e-07
9.25122e-07
9.25122e-07
9.25122e-07
9.25122e-07
9.25122e-07
9.25122e-07
9.26848e-07
9.27537e-07
9.26583e-07
9.25121e-07
9.25123e-07
9.25122e-07
9.25123e-07
9.25122e-07
9.25123e-07
9.25122e-07
9.25123e-07
9.25121e-07
9.2685e-07
9.27537e-07
9.27335e-07
9.26423e-07
9.25122e-07
9.25122e-07
9.25122e-07
9.25122e-07
9.25122e-07
9.25122e-07
9.25122e-07
9.26641e-07
9.26849e-07
9.2751e-07
9.27358e-07
9.26718e-07
9.264e-07
9.25122e-07
9.25123e-07
9.25122e-07
9.25123e-07
9.25122e-07
9.26607e-07
9.26769e-07
9.26894e-07
9.2735e-07
9.26715e-07
9.26426e-07
9.25121e-07
9.25122e-07
9.25121e-07
9.26641e-07
9.26769e-07
9.26869e-07
9.27492e-07
9.27353e-07
9.26801e-07
9.26857e-07
9.26848e-07
9.2685e-07
9.26849e-07
9.26894e-07
9.27492e-07
9.27371e-07
9.2752e-07
9.27537e-07
9.27538e-07
9.2751e-07
9.18482e-07
9.17754e-07
9.17691e-07
9.17739e-07
9.18492e-07
9.18514e-07
9.18497e-07
9.17856e-07
9.17429e-07
9.16278e-07
9.16279e-07
9.16278e-07
9.1758e-07
9.17875e-07
9.18506e-07
9.17856e-07
9.17392e-07
9.16279e-07
9.1628e-07
9.16279e-07
9.1628e-07
9.16278e-07
9.17557e-07
9.17872e-07
9.1851e-07
9.18481e-07
9.17429e-07
9.16279e-07
9.16279e-07
9.16279e-07
9.16279e-07
9.16279e-07
9.16279e-07
9.16278e-07
9.17582e-07
9.17958e-07
9.18528e-07
9.17754e-07
9.16278e-07
9.1628e-07
9.16279e-07
9.1628e-07
9.16279e-07
9.1628e-07
9.16279e-07
9.1628e-07
9.16278e-07
9.18014e-07
9.18677e-07
9.17691e-07
9.16279e-07
9.16279e-07
9.16279e-07
9.16279e-07
9.16279e-07
9.16279e-07
9.16279e-07
9.16279e-07
9.16279e-07
9.18004e-07
9.18694e-07
9.1774e-07
9.16278e-07
9.1628e-07
9.16279e-07
9.1628e-07
9.16279e-07
9.1628e-07
9.16279e-07
9.1628e-07
9.16278e-07
9.18007e-07
9.18694e-07
9.18492e-07
9.1758e-07
9.16279e-07
9.16279e-07
9.16279e-07
9.16279e-07
9.16279e-07
9.16279e-07
9.16279e-07
9.17797e-07
9.18006e-07
9.18667e-07
9.18514e-07
9.17875e-07
9.17557e-07
9.16279e-07
9.1628e-07
9.16279e-07
9.1628e-07
9.16279e-07
9.17764e-07
9.17926e-07
9.1805e-07
9.18506e-07
9.17872e-07
9.17582e-07
9.16278e-07
9.16279e-07
9.16278e-07
9.17797e-07
9.17926e-07
9.18026e-07
9.18649e-07
9.1851e-07
9.17958e-07
9.18014e-07
9.18005e-07
9.18007e-07
9.18006e-07
9.1805e-07
9.18649e-07
9.18528e-07
9.18677e-07
9.18694e-07
9.18694e-07
9.18667e-07
9.09638e-07
9.08911e-07
9.08848e-07
9.08896e-07
9.09649e-07
9.09671e-07
9.09654e-07
9.09013e-07
9.08586e-07
9.07435e-07
9.07436e-07
9.07435e-07
9.08737e-07
9.09031e-07
9.09663e-07
9.09013e-07
9.08549e-07
9.07435e-07
9.07437e-07
9.07436e-07
9.07437e-07
9.07435e-07
9.08714e-07
9.09029e-07
9.09666e-07
9.09638e-07
9.08586e-07
9.07435e-07
9.07436e-07
9.07435e-07
9.07436e-07
9.07435e-07
9.07436e-07
9.07435e-07
9.08739e-07
9.09115e-07
9.09685e-07
9.08911e-07
9.07435e-07
9.07437e-07
9.07435e-07
9.07437e-07
9.07436e-07
9.07437e-07
9.07435e-07
9.07437e-07
9.07435e-07
9.0917e-07
9.09834e-07
9.08848e-07
9.07436e-07
9.07436e-07
9.07436e-07
9.07436e-07
9.07436e-07
9.07435e-07
9.07436e-07
9.07436e-07
9.07436e-07
9.09161e-07
9.09851e-07
9.08896e-07
9.07435e-07
9.07437e-07
9.07435e-07
9.07437e-07
9.07436e-07
9.07437e-07
9.07435e-07
9.07437e-07
9.07435e-07
9.09164e-07
9.09851e-07
9.09649e-07
9.08737e-07
9.07435e-07
9.07436e-07
9.07435e-07
9.07436e-07
9.07435e-07
9.07436e-07
9.07435e-07
9.08954e-07
9.09163e-07
9.09824e-07
9.09671e-07
9.09031e-07
9.08714e-07
9.07435e-07
9.07437e-07
9.07436e-07
9.07437e-07
9.07435e-07
9.08921e-07
9.09083e-07
9.09207e-07
9.09663e-07
9.09029e-07
9.08739e-07
9.07435e-07
9.07436e-07
9.07435e-07
9.08954e-07
9.09083e-07
9.09183e-07
9.09805e-07
9.09666e-07
9.09115e-07
9.0917e-07
9.09161e-07
9.09164e-07
9.09163e-07
9.09207e-07
9.09805e-07
9.09685e-07
9.09834e-07
9.09851e-07
9.09851e-07
9.09824e-07
9.00795e-07
9.00067e-07
9.00005e-07
9.00053e-07
9.00806e-07
9.00828e-07
9.00811e-07
9.0017e-07
8.99743e-07
8.98592e-07
8.98592e-07
8.98592e-07
8.99894e-07
9.00188e-07
9.0082e-07
9.0017e-07
8.99706e-07
8.98592e-07
8.98594e-07
8.98592e-07
8.98594e-07
8.98592e-07
8.99871e-07
9.00186e-07
9.00823e-07
9.00795e-07
8.99743e-07
8.98592e-07
8.98593e-07
8.98592e-07
8.98593e-07
8.98592e-07
8.98593e-07
8.98592e-07
8.99896e-07
9.00272e-07
9.00842e-07
9.00067e-07
8.98592e-07
8.98594e-07
8.98592e-07
8.98593e-07
8.98592e-07
8.98593e-07
8.98592e-07
8.98594e-07
8.98592e-07
9.00327e-07
9.0099e-07
9.00005e-07
8.98592e-07
8.98592e-07
8.98593e-07
8.98592e-07
8.98593e-07
8.98592e-07
8.98593e-07
8.98592e-07
8.98592e-07
9.00318e-07
9.01007e-07
9.00053e-07
8.98592e-07
8.98594e-07
8.98592e-07
8.98593e-07
8.98592e-07
8.98593e-07
8.98592e-07
8.98594e-07
8.98592e-07
9.00321e-07
9.01008e-07
9.00806e-07
8.99893e-07
8.98592e-07
8.98593e-07
8.98592e-07
8.98593e-07
8.98592e-07
8.98593e-07
8.98592e-07
9.00111e-07
9.0032e-07
9.00981e-07
9.00828e-07
9.00188e-07
8.99871e-07
8.98592e-07
8.98594e-07
8.98592e-07
8.98594e-07
8.98592e-07
9.00078e-07
9.00239e-07
9.00364e-07
9.0082e-07
9.00186e-07
8.99896e-07
8.98592e-07
8.98592e-07
8.98592e-07
9.00111e-07
9.00239e-07
9.00339e-07
9.00962e-07
9.00823e-07
9.00272e-07
9.00327e-07
9.00318e-07
9.00321e-07
9.0032e-07
9.00364e-07
9.00962e-07
9.00842e-07
9.0099e-07
9.01007e-07
9.01008e-07
9.00981e-07
8.91952e-07
8.91224e-07
8.91162e-07
8.9121e-07
8.91963e-07
8.91985e-07
8.91968e-07
8.91327e-07
8.90899e-07
8.89748e-07
8.89749e-07
8.89748e-07
8.9105e-07
8.91345e-07
8.91977e-07
8.91327e-07
8.90863e-07
8.89749e-07
8.8975e-07
8.89749e-07
8.8975e-07
8.89749e-07
8.91027e-07
8.91342e-07
8.9198e-07
8.91952e-07
8.90899e-07
8.89749e-07
8.8975e-07
8.89749e-07
8.89749e-07
8.89749e-07
8.8975e-07
8.89749e-07
8.91053e-07
8.91428e-07
8.91999e-07
8.91224e-07
8.89748e-07
8.8975e-07
8.89749e-07
8.8975e-07
8.89749e-07
8.8975e-07
8.89749e-07
8.8975e-07
8.89748e-07
8.91484e-07
8.92147e-07
8.91162e-07
8.89749e-07
8.89749e-07
8.89749e-07
8.89749e-07
8.89749e-07
8.89749e-07
8.89749e-07
8.89749e-07
8.89749e-07
8.91475e-07
8.92164e-07
8.9121e-07
8.89748e-07
8.8975e-07
8.89749e-07
8.8975e-07
8.89749e-07
8.8975e-07
8.89749e-07
8.8975e-07
8.89748e-07
8.91478e-07
8.92165e-07
8.91962e-07
8.9105e-07
8.89749e-07
8.8975e-07
8.89749e-07
8.89749e-07
8.89749e-07
8.8975e-07
8.89749e-07
8.91268e-07
8.91476e-07
8.92137e-07
8.91985e-07
8.91345e-07
8.91027e-07
8.89749e-07
8.8975e-07
8.89749e-07
8.8975e-07
8.89749e-07
8.91235e-07
8.91396e-07
8.91521e-07
8.91977e-07
8.91342e-07
8.91053e-07
8.89748e-07
8.89749e-07
8.89748e-07
8.91268e-07
8.91396e-07
8.91496e-07
8.92119e-07
8.9198e-07
8.91428e-07
8.91484e-07
8.91475e-07
8.91477e-07
8.91476e-07
8.91521e-07
8.92119e-07
8.91998e-07
8.92147e-07
8.92164e-07
8.92165e-07
8.92137e-07
8.83109e-07
8.82381e-07
8.82319e-07
8.82367e-07
8.83119e-07
8.83141e-07
8.83125e-07
8.82483e-07
8.82056e-07
8.80905e-07
8.80906e-07
8.80905e-07
8.82207e-07
8.82502e-07
8.83133e-07
8.82483e-07
8.8202e-07
8.80906e-07
8.80907e-07
8.80906e-07
8.80907e-07
8.80906e-07
8.82184e-07
8.82499e-07
8.83137e-07
8.83109e-07
8.82056e-07
8.80906e-07
8.80906e-07
8.80906e-07
8.80906e-07
8.80906e-07
8.80906e-07
8.80906e-07
8.82209e-07
8.82585e-07
8.83155e-07
8.82381e-07
8.80905e-07
8.80907e-07
8.80906e-07
8.80907e-07
8.80906e-07
8.80907e-07
8.80906e-07
8.80907e-07
8.80905e-07
8.82641e-07
8.83304e-07
8.82318e-07
8.80906e-07
8.80906e-07
8.80906e-07
8.80906e-07
8.80906e-07
8.80906e-07
8.80906e-07
8.80906e-07
8.80906e-07
8.82632e-07
8.83321e-07
8.82366e-07
8.80905e-07
8.80907e-07
8.80906e-07
8.80907e-07
8.80906e-07
8.80907e-07
8.80906e-07
8.80907e-07
8.80905e-07
8.82634e-07
8.83321e-07
8.83119e-07
8.82207e-07
8.80906e-07
8.80906e-07
8.80906e-07
8.80906e-07
8.80906e-07
8.80906e-07
8.80906e-07
8.82424e-07
8.82633e-07
8.83294e-07
8.83141e-07
8.82502e-07
8.82184e-07
8.80906e-07
8.80907e-07
8.80906e-07
8.80907e-07
8.80906e-07
8.82391e-07
8.82553e-07
8.82677e-07
8.83133e-07
8.82499e-07
8.82209e-07
8.80905e-07
8.80906e-07
8.80905e-07
8.82424e-07
8.82553e-07
8.82653e-07
8.83276e-07
8.83137e-07
8.82585e-07
8.82641e-07
8.82632e-07
8.82634e-07
8.82633e-07
8.82677e-07
8.83276e-07
8.83155e-07
8.83304e-07
8.83321e-07
8.83321e-07
8.83294e-07
8.74265e-07
8.73538e-07
8.73475e-07
8.73523e-07
8.74276e-07
8.74298e-07
8.74281e-07
8.7364e-07
8.73213e-07
8.72062e-07
8.72063e-07
8.72062e-07
8.73364e-07
8.73658e-07
8.7429e-07
8.7364e-07
8.73176e-07
8.72062e-07
8.72064e-07
8.72063e-07
8.72064e-07
8.72062e-07
8.73341e-07
8.73656e-07
8.74293e-07
8.74265e-07
8.73213e-07
8.72062e-07
8.72063e-07
8.72062e-07
8.72063e-07
8.72062e-07
8.72063e-07
8.72062e-07
8.73366e-07
8.73742e-07
8.74312e-07
8.73538e-07
8.72062e-07
8.72064e-07
8.72062e-07
8.72064e-07
8.72063e-07
8.72064e-07
8.72062e-07
8.72064e-07
8.72062e-07
8.73797e-07
8.74461e-07
8.73475e-07
8.72063e-07
8.72063e-07
8.72063e-07
8.72063e-07
8.72063e-07
8.72063e-07
8.72063e-07
8.72063e-07
8.72063e-07
8.73788e-07
8.74478e-07
8.73523e-07
8.72062e-07
8.72064e-07
8.72062e-07
8.72064e-07
8.72063e-07
8.72064e-07