/*--------------------------------*- C++ -*----------------------------------*\
| =========                 |                                                 |
| \\      /  F ield         | OpenFOAM: The Open Source CFD Toolbox           |
|  \\    /   O peration     | Version:  v2012                                 |
|   \\  /    A nd           | Website:  www.openfoam.com                      |
|    \\/     M anipulation  |                                                 |
\*---------------------------------------------------------------------------*/
FoamFile
{
    version     2.0;
    format      ascii;
    class       volScalarField;
    location    "36";
    object      p;
}
// * * * * * * * * * * * * * * * * * * * * * * * * * * * * * * * * * * * * * //

dimensions      [0 2 -2 0 0 0 0];


internalField   nonuniform List<scalar> 
292667
(
1.34223e-06
1.33211e-06
1.33125e-06
1.33133e-06
1.33253e-06
1.34318e-06
1.33232e-06
1.3293e-06
1.32754e-06
1.32683e-06
1.32692e-06
1.32786e-06
1.32989e-06
1.33321e-06
1.33232e-06
1.32841e-06
1.326e-06
1.32468e-06
1.32412e-06
1.3242e-06
1.32492e-06
1.32646e-06
1.32919e-06
1.33347e-06
1.34223e-06
1.3293e-06
1.326e-06
1.32406e-06
1.32297e-06
1.32251e-06
1.32257e-06
1.32317e-06
1.32444e-06
1.32665e-06
1.33036e-06
1.3421e-06
1.33211e-06
1.32754e-06
1.32468e-06
1.32297e-06
1.322e-06
1.32158e-06
1.32164e-06
1.32219e-06
1.32331e-06
1.32525e-06
1.32851e-06
1.3362e-06
1.33125e-06
1.32683e-06
1.32412e-06
1.32251e-06
1.32158e-06
1.32118e-06
1.32124e-06
1.32176e-06
1.32283e-06
1.32467e-06
1.32776e-06
1.33433e-06
1.33133e-06
1.32692e-06
1.3242e-06
1.32257e-06
1.32164e-06
1.32124e-06
1.32129e-06
1.32182e-06
1.3229e-06
1.32475e-06
1.32786e-06
1.33467e-06
1.33253e-06
1.32786e-06
1.32492e-06
1.32317e-06
1.32219e-06
1.32176e-06
1.32182e-06
1.32238e-06
1.32353e-06
1.32552e-06
1.32887e-06
1.33655e-06
1.34318e-06
1.32989e-06
1.32646e-06
1.32444e-06
1.32331e-06
1.32283e-06
1.3229e-06
1.32353e-06
1.32485e-06
1.32716e-06
1.33101e-06
1.3421e-06
1.33321e-06
1.32919e-06
1.32665e-06
1.32525e-06
1.32467e-06
1.32475e-06
1.32552e-06
1.32716e-06
1.33006e-06
1.33711e-06
1.33347e-06
1.33036e-06
1.32851e-06
1.32776e-06
1.32786e-06
1.32887e-06
1.33101e-06
1.3371e-06
1.3421e-06
1.3362e-06
1.33433e-06
1.33467e-06
1.33655e-06
1.3421e-06
1.31299e-06
1.31191e-06
1.31188e-06
1.31191e-06
1.3129e-06
1.31284e-06
1.31306e-06
1.3122e-06
1.31177e-06
1.31012e-06
1.31009e-06
1.31012e-06
1.31192e-06
1.31219e-06
1.31303e-06
1.3122e-06
1.31179e-06
1.31017e-06
1.31009e-06
1.31014e-06
1.31009e-06
1.31017e-06
1.31188e-06
1.31217e-06
1.313e-06
1.31299e-06
1.31177e-06
1.31017e-06
1.31009e-06
1.31014e-06
1.31013e-06
1.31014e-06
1.31009e-06
1.31017e-06
1.31187e-06
1.31219e-06
1.3131e-06
1.31191e-06
1.31012e-06
1.31009e-06
1.31014e-06
1.3101e-06
1.3101e-06
1.3101e-06
1.31014e-06
1.31009e-06
1.31012e-06
1.31229e-06
1.31318e-06
1.31188e-06
1.31009e-06
1.31014e-06
1.31013e-06
1.3101e-06
1.31009e-06
1.3101e-06
1.31013e-06
1.31014e-06
1.31009e-06
1.31229e-06
1.31302e-06
1.31191e-06
1.31012e-06
1.31009e-06
1.31014e-06
1.3101e-06
1.3101e-06
1.3101e-06
1.31014e-06
1.31009e-06
1.31012e-06
1.3123e-06
1.31306e-06
1.3129e-06
1.31192e-06
1.31017e-06
1.31009e-06
1.31014e-06
1.31013e-06
1.31014e-06
1.31009e-06
1.31017e-06
1.312e-06
1.31222e-06
1.31316e-06
1.31284e-06
1.3122e-06
1.31189e-06
1.31017e-06
1.31009e-06
1.31014e-06
1.31009e-06
1.31017e-06
1.31196e-06
1.31217e-06
1.31224e-06
1.31303e-06
1.31217e-06
1.31187e-06
1.31012e-06
1.31009e-06
1.31012e-06
1.312e-06
1.31218e-06
1.31231e-06
1.31316e-06
1.313e-06
1.31219e-06
1.31229e-06
1.31229e-06
1.3123e-06
1.31222e-06
1.31224e-06
1.31316e-06
1.3131e-06
1.31318e-06
1.31302e-06
1.31307e-06
1.31316e-06
1.3018e-06
1.30075e-06
1.30068e-06
1.30073e-06
1.30175e-06
1.30182e-06
1.30185e-06
1.30092e-06
1.30043e-06
1.2988e-06
1.29879e-06
1.2988e-06
1.30057e-06
1.30092e-06
1.30178e-06
1.30092e-06
1.30043e-06
1.29885e-06
1.29885e-06
1.29889e-06
1.29885e-06
1.29885e-06
1.30057e-06
1.30092e-06
1.30179e-06
1.3018e-06
1.30043e-06
1.29885e-06
1.29886e-06
1.29893e-06
1.29893e-06
1.29893e-06
1.29886e-06
1.29885e-06
1.30057e-06
1.30097e-06
1.30186e-06
1.30076e-06
1.2988e-06
1.29885e-06
1.29893e-06
1.29894e-06
1.29896e-06
1.29894e-06
1.29893e-06
1.29885e-06
1.2988e-06
1.30099e-06
1.30196e-06
1.30068e-06
1.29879e-06
1.29889e-06
1.29893e-06
1.29896e-06
1.29897e-06
1.29896e-06
1.29893e-06
1.29889e-06
1.29879e-06
1.30098e-06
1.30195e-06
1.30073e-06
1.2988e-06
1.29885e-06
1.29893e-06
1.29894e-06
1.29896e-06
1.29894e-06
1.29893e-06
1.29885e-06
1.2988e-06
1.30099e-06
1.30195e-06
1.30175e-06
1.30057e-06
1.29885e-06
1.29886e-06
1.29893e-06
1.29893e-06
1.29893e-06
1.29886e-06
1.29885e-06
1.30074e-06
1.30099e-06
1.30197e-06
1.30182e-06
1.30092e-06
1.30057e-06
1.29885e-06
1.29885e-06
1.29889e-06
1.29885e-06
1.29885e-06
1.30071e-06
1.30092e-06
1.30105e-06
1.30179e-06
1.30092e-06
1.30057e-06
1.2988e-06
1.29879e-06
1.2988e-06
1.30074e-06
1.30092e-06
1.30103e-06
1.30196e-06
1.30179e-06
1.30097e-06
1.30099e-06
1.30098e-06
1.30099e-06
1.30099e-06
1.30105e-06
1.30196e-06
1.30186e-06
1.30196e-06
1.30195e-06
1.30195e-06
1.30197e-06
1.29068e-06
1.28962e-06
1.28955e-06
1.28959e-06
1.29062e-06
1.2907e-06
1.29073e-06
1.28977e-06
1.28926e-06
1.28761e-06
1.28761e-06
1.28761e-06
1.2894e-06
1.28977e-06
1.29066e-06
1.28977e-06
1.28924e-06
1.28764e-06
1.28765e-06
1.28767e-06
1.28765e-06
1.28764e-06
1.28938e-06
1.28976e-06
1.29066e-06
1.29068e-06
1.28926e-06
1.28764e-06
1.28766e-06
1.28771e-06
1.28771e-06
1.28771e-06
1.28766e-06
1.28764e-06
1.2894e-06
1.28984e-06
1.29074e-06
1.28962e-06
1.28761e-06
1.28765e-06
1.28771e-06
1.28773e-06
1.28774e-06
1.28773e-06
1.28771e-06
1.28765e-06
1.28761e-06
1.28984e-06
1.29084e-06
1.28955e-06
1.28761e-06
1.28767e-06
1.28771e-06
1.28774e-06
1.28775e-06
1.28774e-06
1.28771e-06
1.28767e-06
1.28761e-06
1.28982e-06
1.29082e-06
1.2896e-06
1.28761e-06
1.28765e-06
1.28771e-06
1.28773e-06
1.28774e-06
1.28773e-06
1.28771e-06
1.28765e-06
1.28761e-06
1.28983e-06
1.29083e-06
1.29062e-06
1.2894e-06
1.28764e-06
1.28766e-06
1.28771e-06
1.28771e-06
1.28771e-06
1.28766e-06
1.28764e-06
1.28958e-06
1.28986e-06
1.29085e-06
1.2907e-06
1.28977e-06
1.28938e-06
1.28764e-06
1.28765e-06
1.28767e-06
1.28765e-06
1.28764e-06
1.28955e-06
1.28977e-06
1.28993e-06
1.29066e-06
1.28976e-06
1.2894e-06
1.28761e-06
1.28761e-06
1.28761e-06
1.28958e-06
1.28977e-06
1.28991e-06
1.29084e-06
1.29066e-06
1.28984e-06
1.28984e-06
1.28982e-06
1.28983e-06
1.28986e-06
1.28993e-06
1.29084e-06
1.29074e-06
1.29084e-06
1.29082e-06
1.29083e-06
1.29085e-06
1.27955e-06
1.27849e-06
1.27841e-06
1.27846e-06
1.27949e-06
1.27958e-06
1.2796e-06
1.27864e-06
1.27812e-06
1.27646e-06
1.27646e-06
1.27646e-06
1.27825e-06
1.27863e-06
1.27953e-06
1.27864e-06
1.27809e-06
1.27647e-06
1.27648e-06
1.27649e-06
1.27648e-06
1.27647e-06
1.27823e-06
1.27863e-06
1.27954e-06
1.27955e-06
1.27812e-06
1.27647e-06
1.27649e-06
1.27652e-06
1.27652e-06
1.27652e-06
1.27649e-06
1.27647e-06
1.27825e-06
1.27871e-06
1.27961e-06
1.27849e-06
1.27646e-06
1.27648e-06
1.27652e-06
1.27653e-06
1.27654e-06
1.27653e-06
1.27652e-06
1.27648e-06
1.27646e-06
1.27871e-06
1.27971e-06
1.27841e-06
1.27646e-06
1.27649e-06
1.27652e-06
1.27654e-06
1.27655e-06
1.27654e-06
1.27652e-06
1.27649e-06
1.27646e-06
1.27869e-06
1.2797e-06
1.27846e-06
1.27646e-06
1.27648e-06
1.27652e-06
1.27653e-06
1.27654e-06
1.27653e-06
1.27652e-06
1.27648e-06
1.27646e-06
1.2787e-06
1.2797e-06
1.27949e-06
1.27825e-06
1.27647e-06
1.27649e-06
1.27652e-06
1.27652e-06
1.27652e-06
1.27649e-06
1.27647e-06
1.27843e-06
1.27873e-06
1.27972e-06
1.27958e-06
1.27863e-06
1.27823e-06
1.27647e-06
1.27648e-06
1.27649e-06
1.27648e-06
1.27647e-06
1.2784e-06
1.27864e-06
1.27881e-06
1.27953e-06
1.27863e-06
1.27825e-06
1.27646e-06
1.27646e-06
1.27646e-06
1.27843e-06
1.27864e-06
1.27878e-06
1.27971e-06
1.27954e-06
1.27871e-06
1.27871e-06
1.27869e-06
1.2787e-06
1.27873e-06
1.27881e-06
1.27971e-06
1.27961e-06
1.27971e-06
1.2797e-06
1.2797e-06
1.27972e-06
1.26842e-06
1.26736e-06
1.26728e-06
1.26733e-06
1.26837e-06
1.26845e-06
1.26847e-06
1.26751e-06
1.26698e-06
1.26532e-06
1.26532e-06
1.26532e-06
1.26712e-06
1.2675e-06
1.2684e-06
1.26751e-06
1.26695e-06
1.26533e-06
1.26533e-06
1.26534e-06
1.26533e-06
1.26533e-06
1.26709e-06
1.26749e-06
1.26841e-06
1.26842e-06
1.26698e-06
1.26533e-06
1.26534e-06
1.26535e-06
1.26535e-06
1.26535e-06
1.26534e-06
1.26533e-06
1.26712e-06
1.26758e-06
1.26848e-06
1.26736e-06
1.26532e-06
1.26533e-06
1.26535e-06
1.26536e-06
1.26537e-06
1.26536e-06
1.26535e-06
1.26533e-06
1.26532e-06
1.26758e-06
1.26858e-06
1.26728e-06
1.26532e-06
1.26534e-06
1.26535e-06
1.26537e-06
1.26537e-06
1.26537e-06
1.26535e-06
1.26534e-06
1.26532e-06
1.26755e-06
1.26857e-06
1.26733e-06
1.26532e-06
1.26533e-06
1.26535e-06
1.26536e-06
1.26537e-06
1.26536e-06
1.26535e-06
1.26533e-06
1.26532e-06
1.26757e-06
1.26857e-06
1.26837e-06
1.26712e-06
1.26533e-06
1.26534e-06
1.26535e-06
1.26535e-06
1.26535e-06
1.26534e-06
1.26533e-06
1.2673e-06
1.2676e-06
1.26859e-06
1.26845e-06
1.2675e-06
1.26709e-06
1.26533e-06
1.26533e-06
1.26534e-06
1.26533e-06
1.26533e-06
1.26726e-06
1.2675e-06
1.26768e-06
1.2684e-06
1.26749e-06
1.26712e-06
1.26532e-06
1.26532e-06
1.26532e-06
1.2673e-06
1.2675e-06
1.26765e-06
1.26858e-06
1.26841e-06
1.26758e-06
1.26758e-06
1.26755e-06
1.26757e-06
1.2676e-06
1.26768e-06
1.26858e-06
1.26848e-06
1.26858e-06
1.26857e-06
1.26857e-06
1.26859e-06
1.25729e-06
1.25623e-06
1.25615e-06
1.2562e-06
1.25723e-06
1.25732e-06
1.25734e-06
1.25638e-06
1.25585e-06
1.25418e-06
1.25418e-06
1.25418e-06
1.25599e-06
1.25637e-06
1.25727e-06
1.25638e-06
1.25582e-06
1.25419e-06
1.25419e-06
1.25419e-06
1.25419e-06
1.25419e-06
1.25596e-06
1.25636e-06
1.25728e-06
1.25729e-06
1.25585e-06
1.25419e-06
1.25419e-06
1.2542e-06
1.2542e-06
1.2542e-06
1.25419e-06
1.25419e-06
1.25598e-06
1.25645e-06
1.25735e-06
1.25623e-06
1.25418e-06
1.25419e-06
1.2542e-06
1.25421e-06
1.25421e-06
1.25421e-06
1.2542e-06
1.25419e-06
1.25418e-06
1.25645e-06
1.25745e-06
1.25615e-06
1.25418e-06
1.25419e-06
1.2542e-06
1.25421e-06
1.25421e-06
1.25421e-06
1.2542e-06
1.25419e-06
1.25418e-06
1.25642e-06
1.25744e-06
1.2562e-06
1.25418e-06
1.25419e-06
1.2542e-06
1.25421e-06
1.25421e-06
1.25421e-06
1.2542e-06
1.25419e-06
1.25418e-06
1.25643e-06
1.25744e-06
1.25723e-06
1.25599e-06
1.25419e-06
1.25419e-06
1.2542e-06
1.2542e-06
1.2542e-06
1.25419e-06
1.25419e-06
1.25617e-06
1.25647e-06
1.25746e-06
1.25732e-06
1.25637e-06
1.25596e-06
1.25419e-06
1.25419e-06
1.25419e-06
1.25419e-06
1.25419e-06
1.25613e-06
1.25637e-06
1.25655e-06
1.25727e-06
1.25636e-06
1.25598e-06
1.25418e-06
1.25418e-06
1.25418e-06
1.25617e-06
1.25637e-06
1.25652e-06
1.25745e-06
1.25728e-06
1.25645e-06
1.25645e-06
1.25642e-06
1.25643e-06
1.25647e-06
1.25655e-06
1.25745e-06
1.25735e-06
1.25745e-06
1.25744e-06
1.25744e-06
1.25746e-06
1.24616e-06
1.24509e-06
1.24502e-06
1.24507e-06
1.2461e-06
1.24619e-06
1.24621e-06
1.24524e-06
1.24472e-06
1.24305e-06
1.24305e-06
1.24305e-06
1.24485e-06
1.24523e-06
1.24614e-06
1.24524e-06
1.24468e-06
1.24305e-06
1.24305e-06
1.24305e-06
1.24305e-06
1.24305e-06
1.24483e-06
1.24523e-06
1.24615e-06
1.24616e-06
1.24472e-06
1.24305e-06
1.24305e-06
1.24306e-06
1.24306e-06
1.24306e-06
1.24305e-06
1.24305e-06
1.24485e-06
1.24531e-06
1.24622e-06
1.24509e-06
1.24305e-06
1.24305e-06
1.24306e-06
1.24306e-06
1.24306e-06
1.24306e-06
1.24306e-06
1.24305e-06
1.24305e-06
1.24532e-06
1.24632e-06
1.24502e-06
1.24305e-06
1.24305e-06
1.24306e-06
1.24306e-06
1.24307e-06
1.24306e-06
1.24306e-06
1.24305e-06
1.24305e-06
1.24529e-06
1.2463e-06
1.24507e-06
1.24305e-06
1.24305e-06
1.24306e-06
1.24306e-06
1.24306e-06
1.24306e-06
1.24306e-06
1.24305e-06
1.24305e-06
1.2453e-06
1.24631e-06
1.2461e-06
1.24485e-06
1.24305e-06
1.24305e-06
1.24306e-06
1.24306e-06
1.24306e-06
1.24305e-06
1.24305e-06
1.24503e-06
1.24534e-06
1.24633e-06
1.24619e-06
1.24523e-06
1.24483e-06
1.24305e-06
1.24305e-06
1.24305e-06
1.24305e-06
1.24305e-06
1.245e-06
1.24524e-06
1.24542e-06
1.24614e-06
1.24523e-06
1.24485e-06
1.24305e-06
1.24305e-06
1.24305e-06
1.24503e-06
1.24524e-06
1.24539e-06
1.24632e-06
1.24615e-06
1.24532e-06
1.24532e-06
1.24529e-06
1.2453e-06
1.24534e-06
1.24542e-06
1.24632e-06
1.24622e-06
1.24632e-06
1.2463e-06
1.24631e-06
1.24633e-06
1.23503e-06
1.23396e-06
1.23389e-06
1.23394e-06
1.23497e-06
1.23506e-06
1.23508e-06
1.23411e-06
1.23358e-06
1.23192e-06
1.23192e-06
1.23192e-06
1.23372e-06
1.2341e-06
1.23501e-06
1.23411e-06
1.23355e-06
1.23192e-06
1.23192e-06
1.23192e-06
1.23192e-06
1.23192e-06
1.23369e-06
1.2341e-06
1.23502e-06
1.23503e-06
1.23358e-06
1.23192e-06
1.23192e-06
1.23192e-06
1.23192e-06
1.23192e-06
1.23192e-06
1.23192e-06
1.23372e-06
1.23418e-06
1.23509e-06
1.23396e-06
1.23192e-06
1.23192e-06
1.23192e-06
1.23192e-06
1.23192e-06
1.23192e-06
1.23192e-06
1.23192e-06
1.23192e-06
1.23418e-06
1.23519e-06
1.23389e-06
1.23192e-06
1.23192e-06
1.23192e-06
1.23192e-06
1.23193e-06
1.23192e-06
1.23192e-06
1.23192e-06
1.23192e-06
1.23416e-06
1.23517e-06
1.23394e-06
1.23192e-06
1.23192e-06
1.23192e-06
1.23192e-06
1.23192e-06
1.23192e-06
1.23192e-06
1.23192e-06
1.23192e-06
1.23417e-06
1.23518e-06
1.23497e-06
1.23372e-06
1.23192e-06
1.23192e-06
1.23192e-06
1.23192e-06
1.23192e-06
1.23192e-06
1.23192e-06
1.2339e-06
1.23421e-06
1.2352e-06
1.23506e-06
1.2341e-06
1.23369e-06
1.23192e-06
1.23192e-06
1.23192e-06
1.23192e-06
1.23192e-06
1.23386e-06
1.23411e-06
1.23428e-06
1.23501e-06
1.2341e-06
1.23372e-06
1.23192e-06
1.23192e-06
1.23192e-06
1.2339e-06
1.23411e-06
1.23426e-06
1.23519e-06
1.23502e-06
1.23418e-06
1.23418e-06
1.23416e-06
1.23417e-06
1.23421e-06
1.23428e-06
1.23519e-06
1.23509e-06
1.23519e-06
1.23517e-06
1.23518e-06
1.2352e-06
1.2239e-06
1.22283e-06
1.22275e-06
1.2228e-06
1.22384e-06
1.22392e-06
1.22395e-06
1.22298e-06
1.22245e-06
1.22078e-06
1.22078e-06
1.22078e-06
1.22259e-06
1.22297e-06
1.22388e-06
1.22298e-06
1.22242e-06
1.22078e-06
1.22078e-06
1.22079e-06
1.22078e-06
1.22078e-06
1.22256e-06
1.22297e-06
1.22388e-06
1.2239e-06
1.22245e-06
1.22078e-06
1.22079e-06
1.22079e-06
1.22079e-06
1.22079e-06
1.22079e-06
1.22078e-06
1.22259e-06
1.22305e-06
1.22396e-06
1.22283e-06
1.22078e-06
1.22079e-06
1.22079e-06
1.22079e-06
1.22079e-06
1.22079e-06
1.22079e-06
1.22078e-06
1.22078e-06
1.22305e-06
1.22405e-06
1.22275e-06
1.22078e-06
1.22079e-06
1.22079e-06
1.22079e-06
1.22079e-06
1.22079e-06
1.22079e-06
1.22079e-06
1.22078e-06
1.22303e-06
1.22404e-06
1.2228e-06
1.22078e-06
1.22078e-06
1.22079e-06
1.22079e-06
1.22079e-06
1.22079e-06
1.22079e-06
1.22079e-06
1.22078e-06
1.22304e-06
1.22404e-06
1.22384e-06
1.22259e-06
1.22078e-06
1.22079e-06
1.22079e-06
1.22079e-06
1.22079e-06
1.22078e-06
1.22078e-06
1.22277e-06
1.22307e-06
1.22407e-06
1.22392e-06
1.22297e-06
1.22256e-06
1.22078e-06
1.22079e-06
1.22079e-06
1.22078e-06
1.22078e-06
1.22273e-06
1.22298e-06
1.22315e-06
1.22388e-06
1.22297e-06
1.22259e-06
1.22078e-06
1.22078e-06
1.22078e-06
1.22277e-06
1.22298e-06
1.22312e-06
1.22406e-06
1.22388e-06
1.22305e-06
1.22305e-06
1.22303e-06
1.22304e-06
1.22307e-06
1.22315e-06
1.22406e-06
1.22396e-06
1.22405e-06
1.22404e-06
1.22404e-06
1.22407e-06
1.21277e-06
1.2117e-06
1.21162e-06
1.21167e-06
1.21271e-06
1.21279e-06
1.21281e-06
1.21185e-06
1.21132e-06
1.20965e-06
1.20965e-06
1.20965e-06
1.21146e-06
1.21184e-06
1.21275e-06
1.21185e-06
1.21129e-06
1.20965e-06
1.20965e-06
1.20965e-06
1.20965e-06
1.20965e-06
1.21143e-06
1.21183e-06
1.21275e-06
1.21277e-06
1.21132e-06
1.20965e-06
1.20965e-06
1.20965e-06
1.20965e-06
1.20965e-06
1.20965e-06
1.20965e-06
1.21145e-06
1.21192e-06
1.21282e-06
1.2117e-06
1.20965e-06
1.20965e-06
1.20965e-06
1.20965e-06
1.20965e-06
1.20965e-06
1.20965e-06
1.20965e-06
1.20965e-06
1.21192e-06
1.21292e-06
1.21162e-06
1.20965e-06
1.20965e-06
1.20965e-06
1.20965e-06
1.20965e-06
1.20965e-06
1.20965e-06
1.20965e-06
1.20965e-06
1.21189e-06
1.21291e-06
1.21167e-06
1.20965e-06
1.20965e-06
1.20965e-06
1.20965e-06
1.20965e-06
1.20965e-06
1.20965e-06
1.20965e-06
1.20965e-06
1.2119e-06
1.21291e-06
1.21271e-06
1.21146e-06
1.20965e-06
1.20965e-06
1.20965e-06
1.20965e-06
1.20965e-06
1.20965e-06
1.20965e-06
1.21164e-06
1.21194e-06
1.21293e-06
1.21279e-06
1.21184e-06
1.21143e-06
1.20965e-06
1.20965e-06
1.20965e-06
1.20965e-06
1.20965e-06
1.2116e-06
1.21185e-06
1.21202e-06
1.21275e-06
1.21183e-06
1.21145e-06
1.20965e-06
1.20965e-06
1.20965e-06
1.21164e-06
1.21185e-06
1.21199e-06
1.21293e-06
1.21275e-06
1.21192e-06
1.21192e-06
1.21189e-06
1.2119e-06
1.21194e-06
1.21202e-06
1.21293e-06
1.21282e-06
1.21292e-06
1.21291e-06
1.21291e-06
1.21293e-06
1.20163e-06
1.20057e-06
1.20049e-06
1.20054e-06
1.20158e-06
1.20166e-06
1.20168e-06
1.20072e-06
1.20019e-06
1.19852e-06
1.19852e-06
1.19852e-06
1.20032e-06
1.20071e-06
1.20162e-06
1.20072e-06
1.20015e-06
1.19852e-06
1.19852e-06
1.19852e-06
1.19852e-06
1.19852e-06
1.2003e-06
1.2007e-06
1.20162e-06
1.20163e-06
1.20019e-06
1.19852e-06
1.19852e-06
1.19852e-06
1.19852e-06
1.19852e-06
1.19852e-06
1.19852e-06
1.20032e-06
1.20079e-06
1.20169e-06
1.20057e-06
1.19852e-06
1.19852e-06
1.19852e-06
1.19852e-06
1.19852e-06
1.19852e-06
1.19852e-06
1.19852e-06
1.19852e-06
1.20079e-06
1.20179e-06
1.20049e-06
1.19852e-06
1.19852e-06
1.19852e-06
1.19852e-06
1.19852e-06
1.19852e-06
1.19852e-06
1.19852e-06
1.19852e-06
1.20076e-06
1.20178e-06
1.20054e-06
1.19852e-06
1.19852e-06
1.19852e-06
1.19852e-06
1.19852e-06
1.19852e-06
1.19852e-06
1.19852e-06
1.19852e-06
1.20077e-06
1.20178e-06
1.20158e-06
1.20032e-06
1.19852e-06
1.19852e-06
1.19852e-06
1.19852e-06
1.19852e-06
1.19852e-06
1.19852e-06
1.20051e-06
1.20081e-06
1.2018e-06
1.20166e-06
1.20071e-06
1.2003e-06
1.19852e-06
1.19852e-06
1.19852e-06
1.19852e-06
1.19852e-06
1.20047e-06
1.20071e-06
1.20089e-06
1.20162e-06
1.2007e-06
1.20032e-06
1.19852e-06
1.19852e-06
1.19852e-06
1.20051e-06
1.20071e-06
1.20086e-06
1.20179e-06
1.20162e-06
1.20079e-06
1.20079e-06
1.20076e-06
1.20077e-06
1.20081e-06
1.20089e-06
1.20179e-06
1.20169e-06
1.20179e-06
1.20178e-06
1.20178e-06
1.2018e-06
1.1905e-06
1.18943e-06
1.18936e-06
1.18941e-06
1.19044e-06
1.19053e-06
1.19055e-06
1.18958e-06
1.18905e-06
1.18739e-06
1.18739e-06
1.18739e-06
1.18919e-06
1.18957e-06
1.19048e-06
1.18958e-06
1.18902e-06
1.18739e-06
1.18739e-06
1.18739e-06
1.18739e-06
1.18739e-06
1.18917e-06
1.18957e-06
1.19049e-06
1.1905e-06
1.18905e-06
1.18739e-06
1.18739e-06
1.18739e-06
1.18739e-06
1.18739e-06
1.18739e-06
1.18739e-06
1.18919e-06
1.18966e-06
1.19056e-06
1.18943e-06
1.18739e-06
1.18739e-06
1.18739e-06
1.18739e-06
1.18739e-06
1.18739e-06
1.18739e-06
1.18739e-06
1.18739e-06
1.18965e-06
1.19066e-06
1.18936e-06
1.18739e-06
1.18739e-06
1.18739e-06
1.18739e-06
1.18739e-06
1.18739e-06
1.18739e-06
1.18739e-06
1.18739e-06
1.18963e-06
1.19065e-06
1.18941e-06
1.18739e-06
1.18739e-06
1.18739e-06
1.18739e-06
1.18739e-06
1.18739e-06
1.18739e-06
1.18739e-06
1.18739e-06
1.18964e-06
1.19065e-06
1.19044e-06
1.18919e-06
1.18739e-06
1.18739e-06
1.18739e-06
1.18739e-06
1.18739e-06
1.18739e-06
1.18739e-06
1.18937e-06
1.18968e-06
1.19067e-06
1.19053e-06
1.18957e-06
1.18917e-06
1.18739e-06
1.18739e-06
1.18739e-06
1.18739e-06
1.18739e-06
1.18934e-06
1.18958e-06
1.18976e-06
1.19048e-06
1.18957e-06
1.18919e-06
1.18739e-06
1.18739e-06
1.18739e-06
1.18937e-06
1.18958e-06
1.18973e-06
1.19066e-06
1.19049e-06
1.18966e-06
1.18965e-06
1.18963e-06
1.18964e-06
1.18968e-06
1.18976e-06
1.19066e-06
1.19056e-06
1.19066e-06
1.19065e-06
1.19065e-06
1.19067e-06
1.17937e-06
1.1783e-06
1.17823e-06
1.17828e-06
1.17931e-06
1.1794e-06
1.17942e-06
1.17845e-06
1.17792e-06
1.17625e-06
1.17625e-06
1.17625e-06
1.17806e-06
1.17844e-06
1.17935e-06
1.17845e-06
1.17789e-06
1.17625e-06
1.17626e-06
1.17625e-06
1.17626e-06
1.17625e-06
1.17803e-06
1.17844e-06
1.17936e-06
1.17937e-06
1.17792e-06
1.17625e-06
1.17626e-06
1.17626e-06
1.17626e-06
1.17626e-06
1.17626e-06
1.17625e-06
1.17806e-06
1.17852e-06
1.17943e-06
1.1783e-06
1.17625e-06
1.17626e-06
1.17626e-06
1.17626e-06
1.17626e-06
1.17626e-06
1.17626e-06
1.17626e-06
1.17625e-06
1.17852e-06
1.17953e-06
1.17823e-06
1.17625e-06
1.17625e-06
1.17626e-06
1.17626e-06
1.17626e-06
1.17626e-06
1.17626e-06
1.17625e-06
1.17625e-06
1.1785e-06
1.17951e-06
1.17828e-06
1.17625e-06
1.17626e-06
1.17626e-06
1.17626e-06
1.17626e-06
1.17626e-06
1.17626e-06
1.17626e-06
1.17625e-06
1.17851e-06
1.17952e-06
1.17931e-06
1.17806e-06
1.17625e-06
1.17626e-06
1.17626e-06
1.17626e-06
1.17626e-06
1.17626e-06
1.17625e-06
1.17824e-06
1.17855e-06
1.17954e-06
1.1794e-06
1.17844e-06
1.17803e-06
1.17625e-06
1.17626e-06
1.17625e-06
1.17626e-06
1.17625e-06
1.1782e-06
1.17845e-06
1.17862e-06
1.17935e-06
1.17844e-06
1.17806e-06
1.17625e-06
1.17625e-06
1.17625e-06
1.17824e-06
1.17845e-06
1.1786e-06
1.17953e-06
1.17936e-06
1.17852e-06
1.17852e-06
1.1785e-06
1.17851e-06
1.17855e-06
1.17862e-06
1.17953e-06
1.17943e-06
1.17953e-06
1.17951e-06
1.17952e-06
1.17954e-06
1.16824e-06
1.16717e-06
1.16709e-06
1.16714e-06
1.16818e-06
1.16826e-06
1.16829e-06
1.16732e-06
1.16679e-06
1.16512e-06
1.16512e-06
1.16512e-06
1.16693e-06
1.16731e-06
1.16822e-06
1.16732e-06
1.16676e-06
1.16512e-06
1.16512e-06
1.16512e-06
1.16512e-06
1.16512e-06
1.1669e-06
1.16731e-06
1.16822e-06
1.16824e-06
1.16679e-06
1.16512e-06
1.16512e-06
1.16512e-06
1.16512e-06
1.16512e-06
1.16512e-06
1.16512e-06
1.16693e-06
1.16739e-06
1.1683e-06
1.16717e-06
1.16512e-06
1.16512e-06
1.16512e-06
1.16512e-06
1.16512e-06
1.16512e-06
1.16512e-06
1.16512e-06
1.16512e-06
1.16739e-06
1.16839e-06
1.16709e-06
1.16512e-06
1.16512e-06
1.16512e-06
1.16512e-06
1.16512e-06
1.16512e-06
1.16512e-06
1.16512e-06
1.16512e-06
1.16736e-06
1.16838e-06
1.16714e-06
1.16512e-06
1.16512e-06
1.16512e-06
1.16512e-06
1.16512e-06
1.16512e-06
1.16512e-06
1.16512e-06
1.16512e-06
1.16738e-06
1.16838e-06
1.16818e-06
1.16693e-06
1.16512e-06
1.16512e-06
1.16512e-06
1.16512e-06
1.16512e-06
1.16512e-06
1.16512e-06
1.16711e-06
1.16741e-06
1.16841e-06
1.16826e-06
1.16731e-06
1.1669e-06
1.16512e-06
1.16512e-06
1.16512e-06
1.16512e-06
1.16512e-06
1.16707e-06
1.16732e-06
1.16749e-06
1.16822e-06
1.16731e-06
1.16693e-06
1.16512e-06
1.16512e-06
1.16512e-06
1.16711e-06
1.16732e-06
1.16746e-06
1.1684e-06
1.16822e-06
1.16739e-06
1.16739e-06
1.16736e-06
1.16738e-06
1.16741e-06
1.16749e-06
1.1684e-06
1.1683e-06
1.16839e-06
1.16838e-06
1.16838e-06
1.16841e-06
1.15711e-06
1.15604e-06
1.15596e-06
1.15601e-06
1.15705e-06
1.15713e-06
1.15715e-06
1.15619e-06
1.15566e-06
1.15399e-06
1.15399e-06
1.15399e-06
1.1558e-06
1.15618e-06
1.15709e-06
1.15619e-06
1.15563e-06
1.15399e-06
1.15399e-06
1.15399e-06
1.15399e-06
1.15399e-06
1.15577e-06
1.15617e-06
1.15709e-06
1.15711e-06
1.15566e-06
1.15399e-06
1.15399e-06
1.15399e-06
1.15399e-06
1.15399e-06
1.15399e-06
1.15399e-06
1.15579e-06
1.15626e-06
1.15716e-06
1.15604e-06
1.15399e-06
1.15399e-06
1.15399e-06
1.15399e-06
1.15399e-06
1.15399e-06
1.15399e-06
1.15399e-06
1.15399e-06
1.15626e-06
1.15726e-06
1.15596e-06
1.15399e-06
1.15399e-06
1.15399e-06
1.15399e-06
1.15399e-06
1.15399e-06
1.15399e-06
1.15399e-06
1.15399e-06
1.15623e-06
1.15725e-06
1.15601e-06
1.15399e-06
1.15399e-06
1.15399e-06
1.15399e-06
1.15399e-06
1.15399e-06
1.15399e-06
1.15399e-06
1.15399e-06
1.15624e-06
1.15725e-06
1.15705e-06
1.1558e-06
1.15399e-06
1.15399e-06
1.15399e-06
1.15399e-06
1.15399e-06
1.15399e-06
1.15399e-06
1.15598e-06
1.15628e-06
1.15727e-06
1.15713e-06
1.15618e-06
1.15577e-06
1.15399e-06
1.15399e-06
1.15399e-06
1.15399e-06
1.15399e-06
1.15594e-06
1.15619e-06
1.15636e-06
1.15709e-06
1.15617e-06
1.15579e-06
1.15399e-06
1.15399e-06
1.15399e-06
1.15598e-06
1.15619e-06
1.15633e-06
1.15727e-06
1.15709e-06
1.15626e-06
1.15626e-06
1.15623e-06
1.15624e-06
1.15628e-06
1.15636e-06
1.15727e-06
1.15716e-06
1.15726e-06
1.15725e-06
1.15725e-06
1.15727e-06
1.14597e-06
1.14491e-06
1.14483e-06
1.14488e-06
1.14592e-06
1.146e-06
1.14602e-06
1.14506e-06
1.14453e-06
1.14286e-06
1.14286e-06
1.14286e-06
1.14466e-06
1.14505e-06
1.14596e-06
1.14506e-06
1.14449e-06
1.14286e-06
1.14286e-06
1.14286e-06
1.14286e-06
1.14286e-06
1.14464e-06
1.14504e-06
1.14596e-06
1.14597e-06
1.14453e-06
1.14286e-06
1.14286e-06
1.14286e-06
1.14286e-06
1.14286e-06
1.14286e-06
1.14286e-06
1.14466e-06
1.14513e-06
1.14603e-06
1.14491e-06
1.14286e-06
1.14286e-06
1.14286e-06
1.14286e-06
1.14286e-06
1.14286e-06
1.14286e-06
1.14286e-06
1.14286e-06
1.14513e-06
1.14613e-06
1.14483e-06
1.14286e-06
1.14286e-06
1.14286e-06
1.14286e-06
1.14286e-06
1.14286e-06
1.14286e-06
1.14286e-06
1.14286e-06
1.1451e-06
1.14612e-06
1.14488e-06
1.14286e-06
1.14286e-06
1.14286e-06
1.14286e-06
1.14286e-06
1.14286e-06
1.14286e-06
1.14286e-06
1.14286e-06
1.14511e-06
1.14612e-06
1.14592e-06
1.14466e-06
1.14286e-06
1.14286e-06
1.14286e-06
1.14286e-06
1.14286e-06
1.14286e-06
1.14286e-06
1.14485e-06
1.14515e-06
1.14614e-06
1.146e-06
1.14505e-06
1.14464e-06
1.14286e-06
1.14286e-06
1.14286e-06
1.14286e-06
1.14286e-06
1.14481e-06
1.14505e-06
1.14523e-06
1.14596e-06
1.14504e-06
1.14466e-06
1.14286e-06
1.14286e-06
1.14286e-06
1.14484e-06
1.14505e-06
1.1452e-06
1.14613e-06
1.14596e-06
1.14513e-06
1.14513e-06
1.1451e-06
1.14511e-06
1.14515e-06
1.14523e-06
1.14613e-06
1.14603e-06
1.14613e-06
1.14612e-06
1.14612e-06
1.14614e-06
1.13484e-06
1.13377e-06
1.1337e-06
1.13375e-06
1.13478e-06
1.13487e-06
1.13489e-06
1.13392e-06
1.13339e-06
1.13173e-06
1.13173e-06
1.13173e-06
1.13353e-06
1.13391e-06
1.13482e-06
1.13392e-06
1.13336e-06
1.13173e-06
1.13173e-06
1.13173e-06
1.13173e-06
1.13173e-06
1.13351e-06
1.13391e-06
1.13483e-06
1.13484e-06
1.13339e-06
1.13173e-06
1.13173e-06
1.13173e-06
1.13173e-06
1.13173e-06
1.13173e-06
1.13173e-06
1.13353e-06
1.13399e-06
1.1349e-06
1.13377e-06
1.13173e-06
1.13173e-06
1.13173e-06
1.13173e-06
1.13173e-06
1.13173e-06
1.13173e-06
1.13173e-06
1.13173e-06
1.13399e-06
1.135e-06
1.1337e-06
1.13173e-06
1.13173e-06
1.13173e-06
1.13173e-06
1.13173e-06
1.13173e-06
1.13173e-06
1.13173e-06
1.13173e-06
1.13397e-06
1.13498e-06
1.13375e-06
1.13173e-06
1.13173e-06
1.13173e-06
1.13173e-06
1.13173e-06
1.13173e-06
1.13173e-06
1.13173e-06
1.13173e-06
1.13398e-06
1.13499e-06
1.13478e-06
1.13353e-06
1.13173e-06
1.13173e-06
1.13173e-06
1.13173e-06
1.13173e-06
1.13173e-06
1.13173e-06
1.13371e-06
1.13402e-06
1.13501e-06
1.13487e-06
1.13391e-06
1.13351e-06
1.13173e-06
1.13173e-06
1.13173e-06
1.13173e-06
1.13173e-06
1.13368e-06
1.13392e-06
1.1341e-06
1.13482e-06
1.13391e-06
1.13353e-06
1.13173e-06
1.13173e-06
1.13173e-06
1.13371e-06
1.13392e-06
1.13407e-06
1.135e-06
1.13483e-06
1.13399e-06
1.13399e-06
1.13397e-06
1.13398e-06
1.13402e-06
1.1341e-06
1.135e-06
1.1349e-06
1.135e-06
1.13498e-06
1.13499e-06
1.13501e-06
1.12371e-06
1.12264e-06
1.12257e-06
1.12262e-06
1.12365e-06
1.12374e-06
1.12376e-06
1.12279e-06
1.12226e-06
1.12059e-06
1.12059e-06
1.12059e-06
1.1224e-06
1.12278e-06
1.12369e-06
1.12279e-06
1.12223e-06
1.12059e-06
1.1206e-06
1.12059e-06
1.1206e-06
1.12059e-06
1.12237e-06
1.12278e-06
1.1237e-06
1.12371e-06
1.12226e-06
1.12059e-06
1.12059e-06
1.12059e-06
1.12059e-06
1.12059e-06
1.12059e-06
1.12059e-06
1.1224e-06
1.12286e-06
1.12377e-06
1.12264e-06
1.12059e-06
1.1206e-06
1.12059e-06
1.12059e-06
1.12059e-06
1.12059e-06
1.12059e-06
1.1206e-06
1.12059e-06
1.12286e-06
1.12387e-06
1.12257e-06
1.12059e-06
1.12059e-06
1.12059e-06
1.12059e-06
1.12059e-06
1.12059e-06
1.12059e-06
1.12059e-06
1.12059e-06
1.12284e-06
1.12385e-06
1.12262e-06
1.12059e-06
1.1206e-06
1.12059e-06
1.12059e-06
1.12059e-06
1.12059e-06
1.12059e-06
1.12059e-06
1.12059e-06
1.12285e-06
1.12385e-06
1.12365e-06
1.1224e-06
1.12059e-06
1.12059e-06
1.12059e-06
1.12059e-06
1.12059e-06
1.12059e-06
1.12059e-06
1.12258e-06
1.12289e-06
1.12388e-06
1.12374e-06
1.12278e-06
1.12237e-06
1.12059e-06
1.1206e-06
1.12059e-06
1.1206e-06
1.12059e-06
1.12254e-06
1.12279e-06
1.12296e-06
1.12369e-06
1.12278e-06
1.1224e-06
1.12059e-06
1.12059e-06
1.12059e-06
1.12258e-06
1.12279e-06
1.12294e-06
1.12387e-06
1.1237e-06
1.12286e-06
1.12286e-06
1.12284e-06
1.12285e-06
1.12289e-06
1.12296e-06
1.12387e-06
1.12377e-06
1.12387e-06
1.12385e-06
1.12385e-06
1.12388e-06
1.11258e-06
1.11151e-06
1.11143e-06
1.11148e-06
1.11252e-06
1.1126e-06
1.11263e-06
1.11166e-06
1.11113e-06
1.10946e-06
1.10946e-06
1.10946e-06
1.11127e-06
1.11165e-06
1.11256e-06
1.11166e-06
1.1111e-06
1.10946e-06
1.10946e-06
1.10946e-06
1.10946e-06
1.10946e-06
1.11124e-06
1.11165e-06
1.11256e-06
1.11258e-06
1.11113e-06
1.10946e-06
1.10946e-06
1.10946e-06
1.10946e-06
1.10946e-06
1.10946e-06
1.10946e-06
1.11127e-06
1.11173e-06
1.11264e-06
1.11151e-06
1.10946e-06
1.10946e-06
1.10946e-06
1.10946e-06
1.10946e-06
1.10946e-06
1.10946e-06
1.10946e-06
1.10946e-06
1.11173e-06
1.11273e-06
1.11143e-06
1.10946e-06
1.10946e-06
1.10946e-06
1.10946e-06
1.10946e-06
1.10946e-06
1.10946e-06
1.10946e-06
1.10946e-06
1.1117e-06
1.11272e-06
1.11148e-06
1.10946e-06
1.10946e-06
1.10946e-06
1.10946e-06
1.10946e-06
1.10946e-06
1.10946e-06
1.10946e-06
1.10946e-06
1.11172e-06
1.11272e-06
1.11252e-06
1.11127e-06
1.10946e-06
1.10946e-06
1.10946e-06
1.10946e-06
1.10946e-06
1.10946e-06
1.10946e-06
1.11145e-06
1.11175e-06
1.11275e-06
1.1126e-06
1.11165e-06
1.11124e-06
1.10946e-06
1.10946e-06
1.10946e-06
1.10946e-06
1.10946e-06
1.11141e-06
1.11166e-06
1.11183e-06
1.11256e-06
1.11165e-06
1.11127e-06
1.10946e-06
1.10946e-06
1.10946e-06
1.11145e-06
1.11166e-06
1.1118e-06
1.11274e-06
1.11256e-06
1.11173e-06
1.11173e-06
1.1117e-06
1.11172e-06
1.11175e-06
1.11183e-06
1.11274e-06
1.11264e-06
1.11273e-06
1.11272e-06
1.11272e-06
1.11275e-06
1.10144e-06
1.10038e-06
1.1003e-06
1.10035e-06
1.10139e-06
1.10147e-06
1.10149e-06
1.10053e-06
1.1e-06
1.09833e-06
1.09833e-06
1.09833e-06
1.10014e-06
1.10052e-06
1.10143e-06
1.10053e-06
1.09997e-06
1.09833e-06
1.09833e-06
1.09833e-06
1.09833e-06
1.09833e-06
1.10011e-06
1.10051e-06
1.10143e-06
1.10144e-06
1.1e-06
1.09833e-06
1.09833e-06
1.09833e-06
1.09833e-06
1.09833e-06
1.09833e-06
1.09833e-06
1.10013e-06
1.1006e-06
1.1015e-06
1.10038e-06
1.09833e-06
1.09833e-06
1.09833e-06
1.09833e-06
1.09833e-06
1.09833e-06
1.09833e-06
1.09833e-06
1.09833e-06
1.1006e-06
1.1016e-06
1.1003e-06
1.09833e-06
1.09833e-06
1.09833e-06
1.09833e-06
1.09833e-06
1.09833e-06
1.09833e-06
1.09833e-06
1.09833e-06
1.10057e-06
1.10159e-06
1.10035e-06
1.09833e-06