/*--------------------------------*- C++ -*----------------------------------*\
| =========                 |                                                 |
| \\      /  F ield         | OpenFOAM: The Open Source CFD Toolbox           |
|  \\    /   O peration     | Version:  v2012                                 |
|   \\  /    A nd           | Website:  www.openfoam.com                      |
|    \\/     M anipulation  |                                                 |
\*---------------------------------------------------------------------------*/
FoamFile
{
    version     2.0;
    format      ascii;
    class       volScalarField;
    location    "67";
    object      p;
}
// * * * * * * * * * * * * * * * * * * * * * * * * * * * * * * * * * * * * * //

dimensions      [0 2 -2 0 0 0 0];


internalField   nonuniform List<scalar> 
292667
(
1.07766e-06
1.06867e-06
1.06799e-06
1.06805e-06
1.06897e-06
1.07853e-06
1.06888e-06
1.06654e-06
1.06516e-06
1.0646e-06
1.06467e-06
1.0654e-06
1.06699e-06
1.06953e-06
1.06888e-06
1.06586e-06
1.06396e-06
1.06291e-06
1.06247e-06
1.06252e-06
1.0631e-06
1.06432e-06
1.06645e-06
1.0697e-06
1.07767e-06
1.06654e-06
1.06396e-06
1.06242e-06
1.06155e-06
1.06118e-06
1.06123e-06
1.06171e-06
1.06271e-06
1.06446e-06
1.06734e-06
1.07715e-06
1.06867e-06
1.06516e-06
1.06291e-06
1.06155e-06
1.06078e-06
1.06045e-06
1.0605e-06
1.06093e-06
1.06182e-06
1.06336e-06
1.06591e-06
1.07203e-06
1.06799e-06
1.0646e-06
1.06247e-06
1.06118e-06
1.06045e-06
1.06013e-06
1.06018e-06
1.06059e-06
1.06144e-06
1.0629e-06
1.06532e-06
1.07051e-06
1.06805e-06
1.06467e-06
1.06252e-06
1.06123e-06
1.0605e-06
1.06018e-06
1.06022e-06
1.06064e-06
1.06149e-06
1.06297e-06
1.0654e-06
1.07081e-06
1.06897e-06
1.0654e-06
1.0631e-06
1.06171e-06
1.06093e-06
1.06059e-06
1.06064e-06
1.06108e-06
1.06199e-06
1.06357e-06
1.06619e-06
1.07232e-06
1.07853e-06
1.06699e-06
1.06432e-06
1.06271e-06
1.06182e-06
1.06144e-06
1.06149e-06
1.06199e-06
1.06304e-06
1.06487e-06
1.06785e-06
1.07701e-06
1.06953e-06
1.06645e-06
1.06446e-06
1.06336e-06
1.0629e-06
1.06297e-06
1.06357e-06
1.06487e-06
1.06712e-06
1.07299e-06
1.0697e-06
1.06734e-06
1.06591e-06
1.06532e-06
1.0654e-06
1.06619e-06
1.06785e-06
1.07299e-06
1.07715e-06
1.07203e-06
1.07051e-06
1.07081e-06
1.07232e-06
1.07701e-06
1.05334e-06
1.05267e-06
1.05264e-06
1.05269e-06
1.05337e-06
1.05323e-06
1.05338e-06
1.05285e-06
1.05251e-06
1.05134e-06
1.05132e-06
1.05134e-06
1.05268e-06
1.05291e-06
1.05343e-06
1.05285e-06
1.0525e-06
1.05138e-06
1.05133e-06
1.05137e-06
1.05133e-06
1.05138e-06
1.05266e-06
1.0529e-06
1.05341e-06
1.05334e-06
1.05251e-06
1.05138e-06
1.05132e-06
1.05134e-06
1.05133e-06
1.05134e-06
1.05132e-06
1.05138e-06
1.05266e-06
1.05293e-06
1.05343e-06
1.05267e-06
1.05134e-06
1.05133e-06
1.05134e-06
1.0513e-06
1.05131e-06
1.0513e-06
1.05134e-06
1.05133e-06
1.05134e-06
1.05308e-06
1.0536e-06
1.05264e-06
1.05132e-06
1.05137e-06
1.05133e-06
1.05131e-06
1.0513e-06
1.05131e-06
1.05133e-06
1.05137e-06
1.05132e-06
1.05311e-06
1.05354e-06
1.05269e-06
1.05134e-06
1.05133e-06
1.05134e-06
1.0513e-06
1.05131e-06
1.0513e-06
1.05134e-06
1.05133e-06
1.05134e-06
1.0531e-06
1.05356e-06
1.05337e-06
1.05268e-06
1.05138e-06
1.05132e-06
1.05134e-06
1.05133e-06
1.05134e-06
1.05132e-06
1.05138e-06
1.05286e-06
1.05299e-06
1.05356e-06
1.05323e-06
1.05291e-06
1.05266e-06
1.05138e-06
1.05133e-06
1.05137e-06
1.05133e-06
1.05138e-06
1.05283e-06
1.05296e-06
1.05296e-06
1.05343e-06
1.0529e-06
1.05266e-06
1.05134e-06
1.05132e-06
1.05134e-06
1.05286e-06
1.05296e-06
1.053e-06
1.05352e-06
1.05341e-06
1.05293e-06
1.05308e-06
1.05311e-06
1.0531e-06
1.05299e-06
1.05296e-06
1.05352e-06
1.05343e-06
1.0536e-06
1.05354e-06
1.05356e-06
1.05356e-06
1.04439e-06
1.04367e-06
1.04361e-06
1.04365e-06
1.0444e-06
1.04442e-06
1.0444e-06
1.04377e-06
1.04338e-06
1.04224e-06
1.04224e-06
1.04224e-06
1.04353e-06
1.04381e-06
1.04441e-06
1.04377e-06
1.04335e-06
1.04228e-06
1.04228e-06
1.04232e-06
1.04228e-06
1.04228e-06
1.04353e-06
1.04381e-06
1.04441e-06
1.04439e-06
1.04338e-06
1.04228e-06
1.0423e-06
1.04234e-06
1.04234e-06
1.04234e-06
1.0423e-06
1.04228e-06
1.04354e-06
1.04387e-06
1.04444e-06
1.04367e-06
1.04224e-06
1.04228e-06
1.04234e-06
1.04235e-06
1.04237e-06
1.04235e-06
1.04234e-06
1.04228e-06
1.04224e-06
1.04394e-06
1.04458e-06
1.04361e-06
1.04224e-06
1.04232e-06
1.04234e-06
1.04237e-06
1.04237e-06
1.04237e-06
1.04234e-06
1.04232e-06
1.04224e-06
1.04394e-06
1.0446e-06
1.04365e-06
1.04224e-06
1.04228e-06
1.04234e-06
1.04235e-06
1.04237e-06
1.04235e-06
1.04234e-06
1.04228e-06
1.04224e-06
1.04394e-06
1.0446e-06
1.0444e-06
1.04353e-06
1.04228e-06
1.0423e-06
1.04234e-06
1.04234e-06
1.04234e-06
1.0423e-06
1.04228e-06
1.04375e-06
1.04392e-06
1.04458e-06
1.04442e-06
1.04381e-06
1.04353e-06
1.04228e-06
1.04228e-06
1.04232e-06
1.04228e-06
1.04228e-06
1.04373e-06
1.04386e-06
1.04395e-06
1.04441e-06
1.04381e-06
1.04354e-06
1.04224e-06
1.04224e-06
1.04224e-06
1.04375e-06
1.04386e-06
1.04393e-06
1.04455e-06
1.04441e-06
1.04387e-06
1.04394e-06
1.04394e-06
1.04394e-06
1.04392e-06
1.04395e-06
1.04455e-06
1.04444e-06
1.04458e-06
1.0446e-06
1.0446e-06
1.04458e-06
1.03546e-06
1.03472e-06
1.03466e-06
1.03471e-06
1.03547e-06
1.03549e-06
1.03547e-06
1.03483e-06
1.03441e-06
1.03326e-06
1.03326e-06
1.03326e-06
1.03456e-06
1.03485e-06
1.03548e-06
1.03483e-06
1.03438e-06
1.03328e-06
1.03329e-06
1.03331e-06
1.03329e-06
1.03328e-06
1.03455e-06
1.03485e-06
1.03548e-06
1.03546e-06
1.03441e-06
1.03328e-06
1.0333e-06
1.03333e-06
1.03333e-06
1.03333e-06
1.0333e-06
1.03328e-06
1.03457e-06
1.03493e-06
1.0355e-06
1.03472e-06
1.03326e-06
1.03329e-06
1.03333e-06
1.03335e-06
1.03336e-06
1.03335e-06
1.03333e-06
1.03329e-06
1.03326e-06
1.03498e-06
1.03565e-06
1.03466e-06
1.03326e-06
1.03331e-06
1.03333e-06
1.03336e-06
1.03337e-06
1.03336e-06
1.03333e-06
1.03331e-06
1.03326e-06
1.03498e-06
1.03567e-06
1.03471e-06
1.03326e-06
1.03329e-06
1.03333e-06
1.03335e-06
1.03336e-06
1.03335e-06
1.03333e-06
1.03329e-06
1.03326e-06
1.03498e-06
1.03567e-06
1.03547e-06
1.03456e-06
1.03328e-06
1.0333e-06
1.03333e-06
1.03333e-06
1.03333e-06
1.0333e-06
1.03328e-06
1.03478e-06
1.03497e-06
1.03564e-06
1.03549e-06
1.03485e-06
1.03455e-06
1.03328e-06
1.03329e-06
1.03331e-06
1.03329e-06
1.03328e-06
1.03475e-06
1.0349e-06
1.03501e-06
1.03548e-06
1.03485e-06
1.03457e-06
1.03326e-06
1.03326e-06
1.03326e-06
1.03478e-06
1.0349e-06
1.03499e-06
1.03562e-06
1.03548e-06
1.03493e-06
1.03498e-06
1.03498e-06
1.03498e-06
1.03497e-06
1.03501e-06
1.03562e-06
1.0355e-06
1.03565e-06
1.03567e-06
1.03567e-06
1.03564e-06
1.02653e-06
1.02579e-06
1.02573e-06
1.02577e-06
1.02653e-06
1.02656e-06
1.02654e-06
1.02589e-06
1.02547e-06
1.0243e-06
1.0243e-06
1.0243e-06
1.02562e-06
1.02591e-06
1.02655e-06
1.02589e-06
1.02543e-06
1.02431e-06
1.02432e-06
1.02433e-06
1.02432e-06
1.02431e-06
1.0256e-06
1.02591e-06
1.02655e-06
1.02652e-06
1.02547e-06
1.02431e-06
1.02433e-06
1.02435e-06
1.02435e-06
1.02435e-06
1.02433e-06
1.02431e-06
1.02562e-06
1.02599e-06
1.02657e-06
1.02579e-06
1.0243e-06
1.02432e-06
1.02435e-06
1.02436e-06
1.02437e-06
1.02436e-06
1.02435e-06
1.02432e-06
1.0243e-06
1.02605e-06
1.02672e-06
1.02573e-06
1.0243e-06
1.02433e-06
1.02435e-06
1.02437e-06
1.02437e-06
1.02437e-06
1.02435e-06
1.02433e-06
1.0243e-06
1.02604e-06
1.02674e-06
1.02577e-06
1.0243e-06
1.02432e-06
1.02435e-06
1.02436e-06
1.02437e-06
1.02436e-06
1.02435e-06
1.02432e-06
1.0243e-06
1.02604e-06
1.02674e-06
1.02653e-06
1.02562e-06
1.02431e-06
1.02433e-06
1.02435e-06
1.02435e-06
1.02435e-06
1.02433e-06
1.02431e-06
1.02583e-06
1.02604e-06
1.02671e-06
1.02656e-06
1.02591e-06
1.0256e-06
1.02431e-06
1.02432e-06
1.02433e-06
1.02432e-06
1.02431e-06
1.0258e-06
1.02596e-06
1.02608e-06
1.02655e-06
1.02591e-06
1.02562e-06
1.0243e-06
1.0243e-06
1.0243e-06
1.02583e-06
1.02596e-06
1.02606e-06
1.02669e-06
1.02655e-06
1.02599e-06
1.02605e-06
1.02604e-06
1.02604e-06
1.02604e-06
1.02608e-06
1.02669e-06
1.02657e-06
1.02672e-06
1.02674e-06
1.02674e-06
1.02671e-06
1.01759e-06
1.01685e-06
1.01679e-06
1.01684e-06
1.0176e-06
1.01762e-06
1.01761e-06
1.01696e-06
1.01653e-06
1.01536e-06
1.01536e-06
1.01536e-06
1.01668e-06
1.01697e-06
1.01761e-06
1.01696e-06
1.01649e-06
1.01536e-06
1.01537e-06
1.01537e-06
1.01537e-06
1.01536e-06
1.01666e-06
1.01697e-06
1.01762e-06
1.01759e-06
1.01653e-06
1.01536e-06
1.01537e-06
1.01538e-06
1.01539e-06
1.01538e-06
1.01537e-06
1.01536e-06
1.01668e-06
1.01706e-06
1.01764e-06
1.01685e-06
1.01536e-06
1.01537e-06
1.01538e-06
1.01539e-06
1.0154e-06
1.01539e-06
1.01538e-06
1.01537e-06
1.01536e-06
1.01711e-06
1.01778e-06
1.01679e-06
1.01536e-06
1.01537e-06
1.01539e-06
1.0154e-06
1.0154e-06
1.0154e-06
1.01539e-06
1.01537e-06
1.01536e-06
1.0171e-06
1.0178e-06
1.01684e-06
1.01536e-06
1.01537e-06
1.01538e-06
1.01539e-06
1.0154e-06
1.01539e-06
1.01538e-06
1.01537e-06
1.01536e-06
1.0171e-06
1.0178e-06
1.0176e-06
1.01668e-06
1.01536e-06
1.01537e-06
1.01538e-06
1.01539e-06
1.01538e-06
1.01537e-06
1.01536e-06
1.01689e-06
1.0171e-06
1.01778e-06
1.01762e-06
1.01697e-06
1.01666e-06
1.01536e-06
1.01537e-06
1.01537e-06
1.01537e-06
1.01536e-06
1.01686e-06
1.01702e-06
1.01715e-06
1.01761e-06
1.01697e-06
1.01668e-06
1.01536e-06
1.01536e-06
1.01536e-06
1.01689e-06
1.01702e-06
1.01712e-06
1.01776e-06
1.01762e-06
1.01706e-06
1.01711e-06
1.0171e-06
1.0171e-06
1.0171e-06
1.01715e-06
1.01776e-06
1.01764e-06
1.01778e-06
1.0178e-06
1.0178e-06
1.01778e-06
1.00865e-06
1.00791e-06
1.00785e-06
1.0079e-06
1.00866e-06
1.00869e-06
1.00867e-06
1.00802e-06
1.00759e-06
1.00642e-06
1.00642e-06
1.00642e-06
1.00774e-06
1.00804e-06
1.00868e-06
1.00802e-06
1.00755e-06
1.00642e-06
1.00643e-06
1.00643e-06
1.00643e-06
1.00642e-06
1.00772e-06
1.00803e-06
1.00868e-06
1.00865e-06
1.00759e-06
1.00642e-06
1.00643e-06
1.00643e-06
1.00643e-06
1.00643e-06
1.00643e-06
1.00642e-06
1.00774e-06
1.00812e-06
1.0087e-06
1.00791e-06
1.00642e-06
1.00643e-06
1.00643e-06
1.00644e-06
1.00644e-06
1.00644e-06
1.00643e-06
1.00643e-06
1.00642e-06
1.00817e-06
1.00885e-06
1.00785e-06
1.00642e-06
1.00643e-06
1.00643e-06
1.00644e-06
1.00644e-06
1.00644e-06
1.00643e-06
1.00643e-06
1.00642e-06
1.00816e-06
1.00887e-06
1.0079e-06
1.00642e-06
1.00643e-06
1.00643e-06
1.00644e-06
1.00644e-06
1.00644e-06
1.00643e-06
1.00643e-06
1.00642e-06
1.00817e-06
1.00887e-06
1.00866e-06
1.00774e-06
1.00642e-06
1.00643e-06
1.00643e-06
1.00643e-06
1.00643e-06
1.00643e-06
1.00642e-06
1.00796e-06
1.00817e-06
1.00884e-06
1.00869e-06
1.00804e-06
1.00772e-06
1.00642e-06
1.00643e-06
1.00643e-06
1.00643e-06
1.00642e-06
1.00792e-06
1.00809e-06
1.00821e-06
1.00868e-06
1.00803e-06
1.00774e-06
1.00642e-06
1.00642e-06
1.00642e-06
1.00796e-06
1.00809e-06
1.00819e-06
1.00882e-06
1.00868e-06
1.00812e-06
1.00817e-06
1.00816e-06
1.00817e-06
1.00817e-06
1.00821e-06
1.00882e-06
1.0087e-06
1.00885e-06
1.00887e-06
1.00887e-06
1.00884e-06
9.99719e-07
9.98978e-07
9.98915e-07
9.98963e-07
9.99727e-07
9.99751e-07
9.99736e-07
9.99083e-07
9.98651e-07
9.9748e-07
9.97481e-07
9.9748e-07
9.98802e-07
9.991e-07
9.99742e-07
9.99083e-07
9.98615e-07
9.97482e-07
9.97485e-07
9.97485e-07
9.97485e-07
9.97482e-07
9.98779e-07
9.99097e-07
9.99745e-07
9.99719e-07
9.98651e-07
9.97482e-07
9.97486e-07
9.97488e-07
9.97489e-07
9.97488e-07
9.97486e-07
9.97482e-07
9.98804e-07
9.99183e-07
9.99766e-07
9.98978e-07
9.9748e-07
9.97485e-07
9.97488e-07
9.97491e-07
9.97493e-07
9.97491e-07
9.97488e-07
9.97485e-07
9.9748e-07
9.99236e-07
9.99913e-07
9.98915e-07
9.97481e-07
9.97485e-07
9.97489e-07
9.97492e-07
9.97494e-07
9.97492e-07
9.97489e-07
9.97485e-07
9.97481e-07
9.99227e-07
9.99929e-07
9.98963e-07
9.9748e-07
9.97485e-07
9.97488e-07
9.97492e-07
9.97493e-07
9.97492e-07
9.97488e-07
9.97485e-07
9.9748e-07
9.9923e-07
9.99929e-07
9.99727e-07
9.98802e-07
9.97482e-07
9.97486e-07
9.97488e-07
9.97489e-07
9.97488e-07
9.97486e-07
9.97482e-07
9.99018e-07
9.9923e-07
9.99904e-07
9.99751e-07
9.991e-07
9.98779e-07
9.97482e-07
9.97485e-07
9.97485e-07
9.97485e-07
9.97482e-07
9.98985e-07
9.9915e-07
9.99275e-07
9.99742e-07
9.99097e-07
9.98804e-07
9.9748e-07
9.97481e-07
9.9748e-07
9.99018e-07
9.9915e-07
9.99251e-07
9.99886e-07
9.99745e-07
9.99183e-07
9.99236e-07
9.99227e-07
9.9923e-07
9.9923e-07
9.99276e-07
9.99886e-07
9.99766e-07
9.99913e-07
9.99929e-07
9.9993e-07
9.99904e-07
9.90782e-07
9.90042e-07
9.89979e-07
9.90027e-07
9.9079e-07
9.90815e-07
9.90799e-07
9.90146e-07
9.89715e-07
9.88543e-07
9.88543e-07
9.88543e-07
9.89865e-07
9.90163e-07
9.90806e-07
9.90146e-07
9.89678e-07
9.88544e-07
9.88546e-07
9.88546e-07
9.88546e-07
9.88544e-07
9.89842e-07
9.90161e-07
9.90809e-07
9.90782e-07
9.89715e-07
9.88544e-07
9.88546e-07
9.88547e-07
9.88548e-07
9.88547e-07
9.88546e-07
9.88544e-07
9.89867e-07
9.90246e-07
9.9083e-07
9.90042e-07
9.88543e-07
9.88546e-07
9.88547e-07
9.88549e-07
9.8855e-07
9.88549e-07
9.88547e-07
9.88546e-07
9.88543e-07
9.903e-07
9.90977e-07
9.89979e-07
9.88543e-07
9.88546e-07
9.88548e-07
9.8855e-07
9.8855e-07
9.8855e-07
9.88548e-07
9.88546e-07
9.88543e-07
9.9029e-07
9.90993e-07
9.90027e-07
9.88543e-07
9.88546e-07
9.88547e-07
9.88549e-07
9.8855e-07
9.88549e-07
9.88547e-07
9.88546e-07
9.88543e-07
9.90293e-07
9.90993e-07
9.9079e-07
9.89865e-07
9.88544e-07
9.88546e-07
9.88547e-07
9.88548e-07
9.88547e-07
9.88546e-07
9.88544e-07
9.90082e-07
9.90294e-07
9.90968e-07
9.90815e-07
9.90163e-07
9.89842e-07
9.88544e-07
9.88546e-07
9.88546e-07
9.88546e-07
9.88544e-07
9.90049e-07
9.90213e-07
9.90339e-07
9.90806e-07
9.90161e-07
9.89867e-07
9.88543e-07
9.88543e-07
9.88543e-07
9.90082e-07
9.90213e-07
9.90315e-07
9.90949e-07
9.90809e-07
9.90247e-07
9.903e-07
9.9029e-07
9.90293e-07
9.90294e-07
9.90339e-07
9.90949e-07
9.9083e-07
9.90977e-07
9.90993e-07
9.90993e-07
9.90968e-07
9.81846e-07
9.81105e-07
9.81042e-07
9.8109e-07
9.81854e-07
9.81878e-07
9.81863e-07
9.81209e-07
9.80778e-07
9.79606e-07
9.79606e-07
9.79606e-07
9.80928e-07
9.81227e-07
9.81869e-07
9.8121e-07
9.80741e-07
9.79606e-07
9.79608e-07
9.79608e-07
9.79608e-07
9.79606e-07
9.80905e-07
9.81224e-07
9.81872e-07
9.81846e-07
9.80778e-07
9.79606e-07
9.79608e-07
9.79608e-07
9.79609e-07
9.79608e-07
9.79608e-07
9.79606e-07
9.8093e-07
9.8131e-07
9.81893e-07
9.81105e-07
9.79606e-07
9.79608e-07
9.79608e-07
9.7961e-07
9.7961e-07
9.7961e-07
9.79608e-07
9.79608e-07
9.79606e-07
9.81363e-07
9.8204e-07
9.81042e-07
9.79606e-07
9.79608e-07
9.79609e-07
9.7961e-07
9.7961e-07
9.7961e-07
9.79609e-07
9.79608e-07
9.79606e-07
9.81354e-07
9.82056e-07
9.8109e-07
9.79606e-07
9.79608e-07
9.79608e-07
9.7961e-07
9.7961e-07
9.7961e-07
9.79608e-07
9.79608e-07
9.79606e-07
9.81357e-07
9.82056e-07
9.81854e-07
9.80928e-07
9.79606e-07
9.79608e-07
9.79608e-07
9.79609e-07
9.79608e-07
9.79608e-07
9.79606e-07
9.81145e-07
9.81357e-07
9.82031e-07
9.81878e-07
9.81227e-07
9.80905e-07
9.79606e-07
9.79608e-07
9.79608e-07
9.79608e-07
9.79606e-07
9.81112e-07
9.81277e-07
9.81403e-07
9.81869e-07
9.81224e-07
9.80931e-07
9.79606e-07
9.79606e-07
9.79606e-07
9.81145e-07
9.81277e-07
9.81378e-07
9.82013e-07
9.81872e-07
9.8131e-07
9.81363e-07
9.81354e-07
9.81357e-07
9.81357e-07
9.81402e-07
9.82013e-07
9.81893e-07
9.8204e-07
9.82056e-07
9.82056e-07
9.82031e-07
9.72909e-07
9.72168e-07
9.72105e-07
9.72153e-07
9.72917e-07
9.72942e-07
9.72926e-07
9.72273e-07
9.71841e-07
9.70669e-07
9.70669e-07
9.70669e-07
9.71992e-07
9.7229e-07
9.72933e-07
9.72273e-07
9.71805e-07
9.70669e-07
9.70671e-07
9.7067e-07
9.70671e-07
9.70669e-07
9.71969e-07
9.72287e-07
9.72936e-07
9.72909e-07
9.71841e-07
9.70669e-07
9.70671e-07
9.7067e-07
9.70671e-07
9.7067e-07
9.70671e-07
9.70669e-07
9.71994e-07
9.72373e-07
9.72957e-07
9.72168e-07
9.70669e-07
9.70671e-07
9.70671e-07
9.70672e-07
9.70671e-07
9.70672e-07
9.7067e-07
9.70671e-07
9.70669e-07
9.72426e-07
9.73103e-07
9.72105e-07
9.70669e-07
9.7067e-07
9.70671e-07
9.70671e-07
9.70672e-07
9.70671e-07
9.70671e-07
9.7067e-07
9.70669e-07
9.72417e-07
9.73119e-07
9.72153e-07
9.70669e-07
9.70671e-07
9.7067e-07
9.70672e-07
9.70671e-07
9.70672e-07
9.7067e-07
9.70671e-07
9.70669e-07
9.7242e-07
9.7312e-07
9.72917e-07
9.71992e-07
9.70669e-07
9.70671e-07
9.7067e-07
9.70671e-07
9.7067e-07
9.7067e-07
9.70669e-07
9.72208e-07
9.7242e-07
9.73095e-07
9.72942e-07
9.7229e-07
9.71969e-07
9.70669e-07
9.70671e-07
9.7067e-07
9.70671e-07
9.70669e-07
9.72175e-07
9.7234e-07
9.72466e-07
9.72933e-07
9.72287e-07
9.71994e-07
9.70669e-07
9.70669e-07
9.70669e-07
9.72208e-07
9.7234e-07
9.72442e-07
9.73076e-07
9.72936e-07
9.72373e-07
9.72426e-07
9.72417e-07
9.7242e-07
9.7242e-07
9.72466e-07
9.73076e-07
9.72957e-07
9.73103e-07
9.73119e-07
9.7312e-07
9.73095e-07
9.63973e-07
9.63232e-07
9.63169e-07
9.63217e-07
9.63981e-07
9.64005e-07
9.6399e-07
9.63336e-07
9.62904e-07
9.61732e-07
9.61733e-07
9.61732e-07
9.63055e-07
9.63353e-07
9.63996e-07
9.63336e-07
9.62868e-07
9.61732e-07
9.61734e-07
9.61733e-07
9.61734e-07
9.61732e-07
9.63032e-07
9.63351e-07
9.63999e-07
9.63973e-07
9.62904e-07
9.61732e-07
9.61733e-07
9.61733e-07
9.61733e-07
9.61733e-07
9.61733e-07
9.61732e-07
9.63057e-07
9.63437e-07
9.6402e-07
9.63232e-07
9.61732e-07
9.61734e-07
9.61733e-07
9.61735e-07
9.61733e-07
9.61735e-07
9.61733e-07
9.61734e-07
9.61732e-07
9.6349e-07
9.64167e-07
9.63169e-07
9.61732e-07
9.61733e-07
9.61733e-07
9.61733e-07
9.61734e-07
9.61733e-07
9.61733e-07
9.61733e-07
9.61733e-07
9.6348e-07
9.64183e-07
9.63217e-07
9.61732e-07
9.61734e-07
9.61733e-07
9.61734e-07
9.61733e-07
9.61734e-07
9.61733e-07
9.61734e-07
9.61732e-07
9.63483e-07
9.64183e-07
9.63981e-07
9.63055e-07
9.61732e-07
9.61733e-07
9.61733e-07
9.61733e-07
9.61733e-07
9.61733e-07
9.61733e-07
9.63271e-07
9.63484e-07
9.64158e-07
9.64005e-07
9.63353e-07
9.63032e-07
9.61732e-07
9.61734e-07
9.61733e-07
9.61734e-07
9.61732e-07
9.63239e-07
9.63403e-07
9.63529e-07
9.63996e-07
9.63351e-07
9.63057e-07
9.61732e-07
9.61733e-07
9.61732e-07
9.63271e-07
9.63403e-07
9.63505e-07
9.6414e-07
9.63999e-07
9.63437e-07
9.6349e-07
9.6348e-07
9.63483e-07
9.63484e-07
9.63529e-07
9.6414e-07
9.6402e-07
9.64167e-07
9.64183e-07
9.64183e-07
9.64158e-07
9.55036e-07
9.54295e-07
9.54232e-07
9.5428e-07
9.55044e-07
9.55069e-07
9.55053e-07
9.544e-07
9.53968e-07
9.52795e-07
9.52796e-07
9.52795e-07
9.54118e-07
9.54417e-07
9.55059e-07
9.544e-07
9.53931e-07
9.52796e-07
9.52797e-07
9.52796e-07
9.52797e-07
9.52796e-07
9.54095e-07
9.54414e-07
9.55063e-07
9.55036e-07
9.53968e-07
9.52796e-07
9.52797e-07
9.52796e-07
9.52797e-07
9.52796e-07
9.52797e-07
9.52796e-07
9.5412e-07
9.545e-07
9.55083e-07
9.54295e-07
9.52795e-07
9.52797e-07
9.52796e-07
9.52797e-07
9.52797e-07
9.52797e-07
9.52796e-07
9.52797e-07
9.52795e-07
9.54553e-07
9.5523e-07
9.54232e-07
9.52796e-07
9.52796e-07
9.52796e-07
9.52796e-07
9.52797e-07
9.52796e-07
9.52797e-07
9.52796e-07
9.52796e-07
9.54544e-07
9.55246e-07
9.5428e-07
9.52795e-07
9.52797e-07
9.52796e-07
9.52797e-07
9.52796e-07
9.52797e-07
9.52796e-07
9.52797e-07
9.52795e-07
9.54547e-07
9.55247e-07
9.55044e-07
9.54118e-07
9.52796e-07
9.52797e-07
9.52796e-07
9.52796e-07
9.52796e-07
9.52797e-07
9.52796e-07
9.54335e-07
9.54547e-07
9.55221e-07
9.55068e-07
9.54417e-07
9.54095e-07
9.52796e-07
9.52797e-07
9.52796e-07
9.52797e-07
9.52796e-07
9.54301e-07
9.54467e-07
9.54593e-07
9.55059e-07
9.54414e-07
9.5412e-07
9.52795e-07
9.52796e-07
9.52795e-07
9.54335e-07
9.54467e-07
9.54568e-07
9.55203e-07
9.55063e-07
9.545e-07
9.54553e-07
9.54544e-07
9.54547e-07
9.54547e-07
9.54593e-07
9.55203e-07
9.55083e-07
9.5523e-07
9.55246e-07
9.55247e-07
9.55221e-07
9.46099e-07
9.45358e-07
9.45295e-07
9.45343e-07
9.46107e-07
9.46132e-07
9.46117e-07
9.45463e-07
9.45031e-07
9.43859e-07
9.43859e-07
9.43859e-07
9.45182e-07
9.4548e-07
9.46123e-07
9.45463e-07
9.44995e-07
9.43859e-07
9.4386e-07
9.43859e-07
9.4386e-07
9.43859e-07
9.45159e-07
9.45478e-07
9.46126e-07
9.46099e-07
9.45031e-07
9.43859e-07
9.4386e-07
9.43859e-07
9.4386e-07
9.43859e-07
9.4386e-07
9.43859e-07
9.45184e-07
9.45563e-07
9.46147e-07
9.45358e-07
9.43859e-07
9.4386e-07
9.43859e-07
9.43861e-07
9.4386e-07
9.43861e-07
9.43859e-07
9.4386e-07
9.43859e-07
9.45617e-07
9.46293e-07
9.45295e-07
9.43859e-07
9.43859e-07
9.4386e-07
9.4386e-07
9.4386e-07
9.4386e-07
9.4386e-07
9.43859e-07
9.43859e-07
9.45607e-07
9.4631e-07
9.45343e-07
9.43859e-07
9.4386e-07
9.43859e-07
9.43861e-07
9.4386e-07
9.43861e-07
9.43859e-07
9.4386e-07
9.43859e-07
9.4561e-07
9.4631e-07
9.46107e-07
9.45182e-07
9.43859e-07
9.4386e-07
9.43859e-07
9.4386e-07
9.43859e-07
9.4386e-07
9.43859e-07
9.45398e-07
9.45611e-07
9.46285e-07
9.46132e-07
9.4548e-07
9.45159e-07
9.43859e-07
9.4386e-07
9.43859e-07
9.4386e-07
9.43859e-07
9.45365e-07
9.4553e-07
9.45656e-07
9.46123e-07
9.45478e-07
9.45184e-07
9.43859e-07
9.43859e-07
9.43859e-07
9.45398e-07
9.4553e-07
9.45632e-07
9.46267e-07
9.46126e-07
9.45563e-07
9.45617e-07
9.45607e-07
9.4561e-07
9.45611e-07
9.45656e-07
9.46266e-07
9.46147e-07
9.46293e-07
9.4631e-07
9.4631e-07
9.46285e-07
9.37163e-07
9.36422e-07
9.36359e-07
9.36407e-07
9.37171e-07
9.37195e-07
9.3718e-07
9.36526e-07
9.36094e-07
9.34922e-07
9.34923e-07
9.34922e-07
9.36245e-07
9.36543e-07
9.37186e-07
9.36526e-07
9.36058e-07
9.34922e-07
9.34924e-07
9.34923e-07
9.34924e-07
9.34922e-07
9.36222e-07
9.36541e-07
9.37189e-07
9.37163e-07
9.36094e-07
9.34922e-07
9.34923e-07
9.34922e-07
9.34923e-07
9.34922e-07
9.34923e-07
9.34922e-07
9.36247e-07
9.36627e-07
9.3721e-07
9.36422e-07
9.34922e-07
9.34924e-07
9.34922e-07
9.34924e-07
9.34923e-07
9.34924e-07
9.34922e-07
9.34924e-07
9.34922e-07
9.3668e-07
9.37357e-07
9.36359e-07
9.34923e-07
9.34923e-07
9.34923e-07
9.34923e-07
9.34923e-07
9.34923e-07
9.34923e-07
9.34923e-07
9.34922e-07
9.3667e-07
9.37373e-07
9.36407e-07
9.34922e-07
9.34924e-07
9.34922e-07
9.34924e-07
9.34923e-07
9.34924e-07
9.34922e-07
9.34924e-07
9.34922e-07
9.36673e-07
9.37373e-07
9.37171e-07
9.36245e-07
9.34922e-07
9.34923e-07
9.34922e-07
9.34923e-07
9.34922e-07
9.34923e-07
9.34922e-07
9.36461e-07
9.36674e-07
9.37348e-07
9.37195e-07
9.36543e-07
9.36222e-07
9.34922e-07
9.34924e-07
9.34923e-07
9.34924e-07
9.34922e-07
9.36428e-07
9.36593e-07
9.36719e-07
9.37186e-07
9.36541e-07
9.36247e-07
9.34922e-07
9.34923e-07
9.34922e-07
9.36461e-07
9.36593e-07
9.36695e-07
9.3733e-07
9.37189e-07
9.36627e-07
9.3668e-07
9.3667e-07
9.36673e-07
9.36674e-07
9.36719e-07
9.3733e-07
9.3721e-07
9.37357e-07
9.37373e-07
9.37373e-07
9.37348e-07
9.28226e-07
9.27485e-07
9.27422e-07
9.2747e-07
9.28234e-07
9.28259e-07
9.28243e-07
9.2759e-07
9.27158e-07
9.25985e-07
9.25986e-07
9.25985e-07
9.27308e-07
9.27607e-07
9.28249e-07
9.2759e-07
9.27121e-07
9.25986e-07
9.25987e-07
9.25986e-07
9.25987e-07
9.25986e-07
9.27285e-07
9.27604e-07
9.28253e-07
9.28226e-07
9.27158e-07
9.25986e-07
9.25986e-07
9.25986e-07
9.25986e-07
9.25986e-07
9.25986e-07
9.25986e-07
9.2731e-07
9.2769e-07
9.28273e-07
9.27485e-07
9.25985e-07
9.25987e-07
9.25986e-07
9.25987e-07
9.25986e-07
9.25987e-07
9.25986e-07
9.25987e-07
9.25985e-07
9.27743e-07
9.2842e-07
9.27422e-07
9.25986e-07
9.25986e-07
9.25986e-07
9.25986e-07
9.25986e-07
9.25986e-07
9.25986e-07
9.25986e-07
9.25986e-07
9.27733e-07
9.28436e-07
9.2747e-07
9.25985e-07
9.25987e-07
9.25986e-07
9.25987e-07
9.25986e-07
9.25987e-07
9.25986e-07
9.25987e-07
9.25985e-07
9.27737e-07
9.28437e-07
9.28234e-07
9.27308e-07
9.25986e-07
9.25986e-07
9.25986e-07
9.25986e-07
9.25986e-07
9.25986e-07
9.25986e-07
9.27525e-07
9.27737e-07
9.28411e-07
9.28259e-07
9.27607e-07
9.27285e-07
9.25986e-07
9.25987e-07
9.25986e-07
9.25987e-07
9.25986e-07
9.27492e-07
9.27657e-07
9.27783e-07
9.28249e-07
9.27604e-07
9.2731e-07
9.25985e-07
9.25986e-07
9.25985e-07
9.27525e-07
9.27657e-07
9.27758e-07
9.28393e-07
9.28253e-07
9.2769e-07
9.27743e-07
9.27733e-07
9.27737e-07
9.27737e-07
9.27783e-07
9.28393e-07
9.28273e-07
9.2842e-07
9.28436e-07
9.28437e-07
9.28411e-07
9.19289e-07
9.18548e-07
9.18485e-07
9.18533e-07
9.19297e-07
9.19322e-07
9.19306e-07
9.18653e-07
9.18221e-07
9.17048e-07
9.17049e-07
9.17048e-07
9.18372e-07
9.1867e-07
9.19313e-07
9.18653e-07
9.18184e-07
9.17049e-07
9.1705e-07
9.17049e-07
9.1705e-07
9.17049e-07
9.18349e-07
9.18668e-07
9.19316e-07
9.19289e-07
9.18221e-07
9.17049e-07
9.1705e-07
9.17049e-07
9.17049e-07
9.17049e-07
9.1705e-07
9.17049e-07
9.18374e-07
9.18753e-07
9.19337e-07
9.18548e-07
9.17049e-07
9.1705e-07
9.17049e-07
9.1705e-07
9.17049e-07
9.1705e-07
9.17049e-07
9.1705e-07
9.17048e-07
9.18807e-07
9.19483e-07
9.18485e-07
9.17049e-07
9.17049e-07
9.17049e-07
9.17049e-07
9.17049e-07
9.17049e-07
9.17049e-07
9.17049e-07
9.17049e-07
9.18797e-07
9.19499e-07
9.18533e-07
9.17049e-07
9.1705e-07
9.17049e-07
9.1705e-07
9.17049e-07
9.1705e-07
9.17049e-07
9.1705e-07
9.17048e-07
9.188e-07
9.195e-07
9.19297e-07
9.18372e-07
9.17049e-07
9.1705e-07
9.17049e-07
9.17049e-07
9.17049e-07
9.1705e-07
9.17049e-07
9.18588e-07
9.188e-07
9.19475e-07
9.19322e-07
9.1867e-07
9.18349e-07
9.17049e-07
9.1705e-07
9.17049e-07
9.1705e-07
9.17049e-07
9.18555e-07
9.1872e-07
9.18846e-07
9.19313e-07
9.18668e-07
9.18374e-07
9.17049e-07
9.17049e-07
9.17049e-07
9.18588e-07
9.1872e-07
9.18822e-07
9.19456e-07
9.19316e-07
9.18753e-07
9.18807e-07
9.18797e-07
9.188e-07
9.188e-07
9.18846e-07
9.19456e-07
9.19337e-07
9.19483e-07
9.19499e-07
9.195e-07
9.19475e-07
9.10353e-07
9.09612e-07
9.09549e-07
9.09597e-07
9.10361e-07
9.10385e-07
9.1037e-07
9.09716e-07
9.09284e-07
9.08112e-07
9.08112e-07
9.08112e-07
9.09435e-07
9.09733e-07
9.10376e-07
9.09716e-07
9.09248e-07
9.08112e-07
9.08114e-07
9.08113e-07
9.08114e-07
9.08112e-07
9.09412e-07
9.09731e-07
9.10379e-07
9.10353e-07
9.09284e-07
9.08112e-07
9.08113e-07
9.08112e-07
9.08113e-07
9.08112e-07
9.08113e-07
9.08112e-07
9.09437e-07
9.09817e-07
9.104e-07
9.09612e-07
9.08112e-07
9.08114e-07
9.08112e-07
9.08114e-07
9.08112e-07
9.08114e-07
9.08112e-07
9.08114e-07
9.08112e-07
9.0987e-07
9.10547e-07
9.09549e-07
9.08112e-07
9.08113e-07
9.08113e-07
9.08112e-07
9.08113e-07
9.08112e-07
9.08113e-07
9.08113e-07
9.08113e-07
9.0986e-07
9.10563e-07
9.09597e-07
9.08112e-07
9.08114e-07
9.08112e-07
9.08114e-07
9.08112e-07
9.08114e-07
9.08112e-07
9.08114e-07
9.08112e-07
9.09863e-07
9.10563e-07
9.10361e-07
9.09435e-07
9.08112e-07
9.08113e-07
9.08112e-07
9.08113e-07
9.08112e-07
9.08113e-07
9.08112e-07
9.09651e-07
9.09864e-07
9.10538e-07
9.10385e-07
9.09733e-07
9.09412e-07
9.08112e-07
9.08114e-07
9.08113e-07
9.08114e-07
9.08112e-07
9.09618e-07
9.09783e-07
9.09909e-07
9.10376e-07
9.09731e-07
9.09437e-07
9.08112e-07
9.08113e-07
9.08112e-07
9.09651e-07
9.09783e-07
9.09885e-07
9.1052e-07
9.10379e-07
9.09817e-07
9.0987e-07
9.0986e-07
9.09863e-07
9.09864e-07
9.09909e-07
9.1052e-07
9.104e-07
9.10547e-07
9.10563e-07
9.10563e-07
9.10538e-07
9.01416e-07
9.00675e-07
9.00612e-07
9.0066e-07
9.01424e-07
9.01449e-07
9.01433e-07
9.0078e-07
9.00348e-07
8.99175e-07
8.99176e-07
8.99175e-07
9.00498e-07
9.00797e-07
9.01439e-07
9.0078e-07
9.00311e-07
8.99176e-07
8.99177e-07
8.99176e-07
8.99177e-07
8.99176e-07
9.00475e-07
9.00794e-07
9.01443e-07
9.01416e-07
9.00348e-07
8.99176e-07
8.99176e-07
8.99176e-07
8.99176e-07
8.99176e-07
8.99176e-07
8.99176e-07
9.005e-07
9.0088e-07
9.01463e-07
9.00675e-07
8.99175e-07
8.99177e-07
8.99176e-07
8.99177e-07
8.99176e-07
8.99177e-07
8.99176e-07
8.99177e-07
8.99175e-07
9.00933e-07
9.0161e-07
9.00612e-07
8.99176e-07
8.99176e-07
8.99176e-07
8.99176e-07
8.99176e-07
8.99176e-07
8.99176e-07
8.99176e-07
8.99176e-07
9.00924e-07
9.01626e-07
9.0066e-07
8.99175e-07
8.99177e-07
8.99176e-07
8.99177e-07
8.99176e-07
8.99177e-07
8.99176e-07
8.99177e-07
8.99175e-07
9.00927e-07
9.01627e-07
9.01424e-07
9.00498e-07
8.99176e-07
8.99176e-07
8.99176e-07
8.99176e-07
8.99176e-07
8.99176e-07
8.99176e-07
9.00715e-07
9.00927e-07
9.01601e-07
9.01448e-07
9.00797e-07
9.00475e-07
8.99176e-07
8.99177e-07
8.99176e-07
8.99177e-07
8.99176e-07
9.00682e-07
9.00847e-07
9.00973e-07
9.01439e-07
9.00794e-07
9.005e-07
8.99175e-07
8.99176e-07
8.99175e-07
9.00715e-07
9.00847e-07
9.00948e-07
9.01583e-07
9.01443e-07
9.0088e-07
9.00933e-07
9.00923e-07
9.00927e-07
9.00927e-07
9.00973e-07
9.01583e-07
9.01463e-07
9.0161e-07
9.01626e-07
9.01627e-07
9.01601e-07
8.92479e-07
8.91738e-07
8.91675e-07
8.91723e-07
8.92487e-07
8.92512e-07
8.92496e-07
8.91843e-07
8.91411e-07
8.90239e-07
8.90239e-07
8.90239e-07
8.91562e-07
8.9186e-07
8.92503e-07
8.91843e-07
8.91374e-07
8.90239e-07
8.9024e-07
8.90239e-07
8.9024e-07
8.90239e-07
8.91539e-07
8.91858e-07
8.92506e-07
8.92479e-07
8.91411e-07
8.90239e-07
8.9024e-07
8.90239e-07
8.90239e-07
8.90239e-07
8.9024e-07
8.90239e-07
8.91564e-07
8.91943e-07
8.92527e-07
8.91738e-07
8.90238e-07
8.9024e-07
8.90239e-07
8.9024e-07
8.90239e-07
8.9024e-07
8.90239e-07
8.9024e-07
8.90239e-07
8.91997e-07
8.92673e-07
8.91675e-07
8.90239e-07
8.90239e-07
8.90239e-07
8.90239e-07
8.90239e-07
8.90239e-07
8.90239e-07
8.90239e-07
8.90239e-07
8.91987e-07
8.9269e-07
8.91723e-07
8.90238e-07
8.9024e-07
8.90239e-07
8.9024e-07
8.90239e-07
8.9024e-07
8.90239e-07
8.9024e-07
8.90239e-07
8.9199e-07
8.9269e-07
8.92487e-07
8.91561e-07
8.90239e-07
8.9024e-07
8.90239e-07
8.90239e-07
8.90239e-07
8.9024e-07
8.90239e-07
8.91778e-07
8.91991e-07
8.92665e-07
8.92512e-07
8.9186e-07
8.91539e-07
8.90239e-07
8.9024e-07
8.90239e-07
8.9024e-07
8.90239e-07
8.91745e-07
8.9191e-07
8.92036e-07
8.92503e-07
8.91858e-07
8.91564e-07
8.90239e-07
8.90239e-07
8.90239e-07
8.91778e-07
8.9191e-07
8.92012e-07
8.92647e-07
8.92506e-07
8.91943e-07
8.91997e-07
8.91987e-07
8.9199e-07
8.91991e-07
8.92036e-07
8.92646e-07
8.92527e-07
8.92673e-07
8.9269e-07
8.9269e-07
8.92665e-07
8.83543e-07
8.82802e-07
8.82739e-07
8.82787e-07
8.83551e-07
8.83575e-07
8.8356e-07
8.82906e-07
8.82474e-07
8.81302e-07
8.81303e-07
8.81302e-07
8.82625e-07
8.82923e-07
8.83566e-07
8.82906e-07
8.82438e-07
8.81302e-07
8.81304e-07
8.81303e-07
8.81304e-07
8.81302e-07
8.82602e-07
8.82921e-07
8.83569e-07
8.83543e-07
8.82474e-07
8.81302e-07
8.81303e-07
8.81302e-07
8.81303e-07
8.81302e-07
8.81303e-07
8.81302e-07
8.82627e-07
8.83007e-07
8.8359e-07
8.82802e-07
8.81302e-07
8.81304e-07
8.81302e-07
8.81304e-07
8.81303e-07
8.81304e-07
8.81302e-07
8.81304e-07
8.81302e-07
8.8306e-07
8.83737e-07
8.82739e-07
8.81302e-07
8.81303e-07
8.81303e-07
8.81302e-07
8.81303e-07
8.81302e-07
8.81303e-07
8.81303e-07
8.81303e-07
8.8305e-07
8.83753e-07
8.82787e-07
8.81302e-07
8.81304e-07
8.81302e-07
8.81304e-07
8.81302e-07
8.81304e-07
8.81302e-07
8.81304e-07
8.81302e-07
8.83053e-07
8.83753e-07