/*--------------------------------*- C++ -*----------------------------------*\
| =========                 |                                                 |
| \\      /  F ield         | OpenFOAM: The Open Source CFD Toolbox           |
|  \\    /   O peration     | Version:  v2012                                 |
|   \\  /    A nd           | Website:  www.openfoam.com                      |
|    \\/     M anipulation  |                                                 |
\*---------------------------------------------------------------------------*/
FoamFile
{
    version     2.0;
    format      ascii;
    class       volScalarField;
    location    "46";
    object      p;
}
// * * * * * * * * * * * * * * * * * * * * * * * * * * * * * * * * * * * * * //

dimensions      [0 2 -2 0 0 0 0];


internalField   nonuniform List<scalar> 
292667
(
1.23243e-06
1.22285e-06
1.22207e-06
1.22214e-06
1.22322e-06
1.23335e-06
1.22306e-06
1.22033e-06
1.21873e-06
1.21808e-06
1.21816e-06
1.21902e-06
1.22086e-06
1.22385e-06
1.22306e-06
1.21952e-06
1.21732e-06
1.21612e-06
1.21561e-06
1.21567e-06
1.21633e-06
1.21774e-06
1.22023e-06
1.22408e-06
1.23243e-06
1.22033e-06
1.21732e-06
1.21554e-06
1.21455e-06
1.21412e-06
1.21418e-06
1.21474e-06
1.21589e-06
1.21791e-06
1.22128e-06
1.23213e-06
1.22285e-06
1.21873e-06
1.21611e-06
1.21455e-06
1.21366e-06
1.21328e-06
1.21333e-06
1.21383e-06
1.21486e-06
1.21664e-06
1.21961e-06
1.2266e-06
1.22207e-06
1.21808e-06
1.21561e-06
1.21412e-06
1.21328e-06
1.21291e-06
1.21296e-06
1.21344e-06
1.21442e-06
1.21611e-06
1.21892e-06
1.2249e-06
1.22214e-06
1.21816e-06
1.21567e-06
1.21418e-06
1.21333e-06
1.21296e-06
1.21301e-06
1.2135e-06
1.21449e-06
1.21618e-06
1.21902e-06
1.22522e-06
1.22322e-06
1.21902e-06
1.21633e-06
1.21473e-06
1.21383e-06
1.21344e-06
1.2135e-06
1.214e-06
1.21506e-06
1.21688e-06
1.21994e-06
1.22693e-06
1.23335e-06
1.22086e-06
1.21774e-06
1.21589e-06
1.21486e-06
1.21442e-06
1.21449e-06
1.21506e-06
1.21627e-06
1.21838e-06
1.22187e-06
1.23205e-06
1.22385e-06
1.22023e-06
1.21791e-06
1.21664e-06
1.21611e-06
1.21618e-06
1.21688e-06
1.21838e-06
1.22101e-06
1.22754e-06
1.22408e-06
1.22128e-06
1.21961e-06
1.21892e-06
1.21902e-06
1.21994e-06
1.22187e-06
1.22754e-06
1.23212e-06
1.2266e-06
1.2249e-06
1.22522e-06
1.22693e-06
1.23205e-06
1.20529e-06
1.20438e-06
1.20435e-06
1.20438e-06
1.20525e-06
1.20515e-06
1.20535e-06
1.20462e-06
1.20423e-06
1.20277e-06
1.20275e-06
1.20277e-06
1.20439e-06
1.20465e-06
1.20535e-06
1.20462e-06
1.20423e-06
1.20282e-06
1.20275e-06
1.20281e-06
1.20275e-06
1.20282e-06
1.20436e-06
1.20463e-06
1.20532e-06
1.20529e-06
1.20423e-06
1.20282e-06
1.20275e-06
1.20279e-06
1.20278e-06
1.20279e-06
1.20275e-06
1.20282e-06
1.20435e-06
1.20465e-06
1.2054e-06
1.20438e-06
1.20277e-06
1.20275e-06
1.20279e-06
1.20275e-06
1.20276e-06
1.20275e-06
1.20279e-06
1.20276e-06
1.20277e-06
1.20478e-06
1.20551e-06
1.20435e-06
1.20275e-06
1.20281e-06
1.20278e-06
1.20276e-06
1.20275e-06
1.20276e-06
1.20278e-06
1.20281e-06
1.20275e-06
1.20479e-06
1.2054e-06
1.20438e-06
1.20277e-06
1.20275e-06
1.20279e-06
1.20275e-06
1.20276e-06
1.20275e-06
1.20279e-06
1.20275e-06
1.20277e-06
1.20479e-06
1.20543e-06
1.20525e-06
1.20439e-06
1.20282e-06
1.20275e-06
1.20279e-06
1.20278e-06
1.20279e-06
1.20275e-06
1.20282e-06
1.20452e-06
1.2047e-06
1.20548e-06
1.20515e-06
1.20465e-06
1.20436e-06
1.20282e-06
1.20276e-06
1.20281e-06
1.20275e-06
1.20282e-06
1.20448e-06
1.20466e-06
1.20469e-06
1.20535e-06
1.20463e-06
1.20435e-06
1.20277e-06
1.20275e-06
1.20277e-06
1.20452e-06
1.20466e-06
1.20475e-06
1.20546e-06
1.20532e-06
1.20465e-06
1.20478e-06
1.20479e-06
1.20479e-06
1.2047e-06
1.20469e-06
1.20546e-06
1.2054e-06
1.20551e-06
1.2054e-06
1.20543e-06
1.20548e-06
1.19503e-06
1.19412e-06
1.19405e-06
1.1941e-06
1.195e-06
1.19506e-06
1.19506e-06
1.19426e-06
1.1938e-06
1.19238e-06
1.19237e-06
1.19238e-06
1.19396e-06
1.19428e-06
1.19503e-06
1.19426e-06
1.19379e-06
1.19243e-06
1.19242e-06
1.19246e-06
1.19242e-06
1.19243e-06
1.19396e-06
1.19428e-06
1.19503e-06
1.19503e-06
1.1938e-06
1.19243e-06
1.19244e-06
1.19249e-06
1.19249e-06
1.19249e-06
1.19244e-06
1.19243e-06
1.19396e-06
1.19433e-06
1.19508e-06
1.19412e-06
1.19238e-06
1.19242e-06
1.19249e-06
1.19251e-06
1.19252e-06
1.19251e-06
1.1925e-06
1.19242e-06
1.19238e-06
1.19437e-06
1.1952e-06
1.19405e-06
1.19237e-06
1.19246e-06
1.19249e-06
1.19253e-06
1.19253e-06
1.19253e-06
1.19249e-06
1.19246e-06
1.19237e-06
1.19437e-06
1.19521e-06
1.1941e-06
1.19238e-06
1.19242e-06
1.19249e-06
1.19251e-06
1.19253e-06
1.19251e-06
1.19249e-06
1.19242e-06
1.19238e-06
1.19437e-06
1.19521e-06
1.195e-06
1.19396e-06
1.19243e-06
1.19244e-06
1.1925e-06
1.19249e-06
1.1925e-06
1.19244e-06
1.19243e-06
1.19415e-06
1.19437e-06
1.19521e-06
1.19506e-06
1.19428e-06
1.19396e-06
1.19243e-06
1.19242e-06
1.19246e-06
1.19242e-06
1.19243e-06
1.19413e-06
1.1943e-06
1.19441e-06
1.19503e-06
1.19428e-06
1.19396e-06
1.19238e-06
1.19237e-06
1.19238e-06
1.19415e-06
1.1943e-06
1.19439e-06
1.19519e-06
1.19503e-06
1.19433e-06
1.19437e-06
1.19437e-06
1.19437e-06
1.19437e-06
1.19441e-06
1.19519e-06
1.19508e-06
1.1952e-06
1.19521e-06
1.19521e-06
1.19521e-06
1.18481e-06
1.18389e-06
1.18382e-06
1.18387e-06
1.18479e-06
1.18485e-06
1.18485e-06
1.18403e-06
1.18355e-06
1.1821e-06
1.1821e-06
1.1821e-06
1.18369e-06
1.18403e-06
1.18481e-06
1.18403e-06
1.18352e-06
1.18213e-06
1.18214e-06
1.18216e-06
1.18214e-06
1.18213e-06
1.18368e-06
1.18403e-06
1.18482e-06
1.18481e-06
1.18355e-06
1.18213e-06
1.18215e-06
1.18219e-06
1.18219e-06
1.18219e-06
1.18215e-06
1.18213e-06
1.1837e-06
1.18411e-06
1.18487e-06
1.18389e-06
1.1821e-06
1.18214e-06
1.18219e-06
1.18221e-06
1.18222e-06
1.18221e-06
1.18219e-06
1.18214e-06
1.1821e-06
1.18413e-06
1.18499e-06
1.18382e-06
1.1821e-06
1.18216e-06
1.18219e-06
1.18222e-06
1.18223e-06
1.18222e-06
1.18219e-06
1.18216e-06
1.1821e-06
1.18412e-06
1.18499e-06
1.18387e-06
1.1821e-06
1.18214e-06
1.18219e-06
1.18221e-06
1.18222e-06
1.18221e-06
1.18219e-06
1.18214e-06
1.1821e-06
1.18413e-06
1.18499e-06
1.18479e-06
1.18369e-06
1.18213e-06
1.18215e-06
1.18219e-06
1.18219e-06
1.18219e-06
1.18215e-06
1.18213e-06
1.18389e-06
1.18414e-06
1.18499e-06
1.18485e-06
1.18403e-06
1.18368e-06
1.18213e-06
1.18214e-06
1.18216e-06
1.18214e-06
1.18213e-06
1.18387e-06
1.18406e-06
1.1842e-06
1.18481e-06
1.18403e-06
1.1837e-06
1.1821e-06
1.1821e-06
1.1821e-06
1.18389e-06
1.18406e-06
1.18417e-06
1.18498e-06
1.18482e-06
1.18411e-06
1.18413e-06
1.18412e-06
1.18413e-06
1.18414e-06
1.1842e-06
1.18498e-06
1.18487e-06
1.18499e-06
1.18499e-06
1.18499e-06
1.18499e-06
1.1746e-06
1.17367e-06
1.1736e-06
1.17365e-06
1.17457e-06
1.17463e-06
1.17463e-06
1.1738e-06
1.17332e-06
1.17186e-06
1.17186e-06
1.17186e-06
1.17346e-06
1.17381e-06
1.1746e-06
1.1738e-06
1.17329e-06
1.17188e-06
1.17189e-06
1.1719e-06
1.17189e-06
1.17188e-06
1.17344e-06
1.1738e-06
1.1746e-06
1.1746e-06
1.17332e-06
1.17188e-06
1.17189e-06
1.17191e-06
1.17192e-06
1.17191e-06
1.17189e-06
1.17188e-06
1.17346e-06
1.17388e-06
1.17465e-06
1.17367e-06
1.17186e-06
1.17189e-06
1.17192e-06
1.17193e-06
1.17194e-06
1.17193e-06
1.17192e-06
1.17189e-06
1.17186e-06
1.17391e-06
1.17477e-06
1.1736e-06
1.17186e-06
1.1719e-06
1.17192e-06
1.17194e-06
1.17194e-06
1.17194e-06
1.17192e-06
1.1719e-06
1.17186e-06
1.17389e-06
1.17477e-06
1.17365e-06
1.17186e-06
1.17189e-06
1.17191e-06
1.17193e-06
1.17194e-06
1.17193e-06
1.17191e-06
1.17189e-06
1.17186e-06
1.1739e-06
1.17478e-06
1.17457e-06
1.17346e-06
1.17188e-06
1.17189e-06
1.17192e-06
1.17192e-06
1.17192e-06
1.17189e-06
1.17188e-06
1.17366e-06
1.17392e-06
1.17478e-06
1.17463e-06
1.17381e-06
1.17344e-06
1.17188e-06
1.17189e-06
1.1719e-06
1.17189e-06
1.17188e-06
1.17363e-06
1.17383e-06
1.17398e-06
1.1746e-06
1.1738e-06
1.17346e-06
1.17186e-06
1.17186e-06
1.17186e-06
1.17366e-06
1.17383e-06
1.17396e-06
1.17476e-06
1.1746e-06
1.17388e-06
1.17391e-06
1.17389e-06
1.1739e-06
1.17392e-06
1.17398e-06
1.17476e-06
1.17465e-06
1.17477e-06
1.17477e-06
1.17478e-06
1.17478e-06
1.16438e-06
1.16345e-06
1.16338e-06
1.16343e-06
1.16435e-06
1.16441e-06
1.16441e-06
1.16358e-06
1.16309e-06
1.16163e-06
1.16163e-06
1.16163e-06
1.16324e-06
1.16358e-06
1.16438e-06
1.16358e-06
1.16306e-06
1.16164e-06
1.16165e-06
1.16165e-06
1.16165e-06
1.16164e-06
1.16322e-06
1.16358e-06
1.16438e-06
1.16438e-06
1.16309e-06
1.16164e-06
1.16165e-06
1.16166e-06
1.16166e-06
1.16166e-06
1.16165e-06
1.16164e-06
1.16324e-06
1.16366e-06
1.16443e-06
1.16345e-06
1.16163e-06
1.16165e-06
1.16166e-06
1.16167e-06
1.16168e-06
1.16167e-06
1.16166e-06
1.16165e-06
1.16163e-06
1.16369e-06
1.16455e-06
1.16338e-06
1.16163e-06
1.16165e-06
1.16166e-06
1.16168e-06
1.16168e-06
1.16168e-06
1.16166e-06
1.16165e-06
1.16163e-06
1.16367e-06
1.16455e-06
1.16343e-06
1.16163e-06
1.16165e-06
1.16166e-06
1.16167e-06
1.16168e-06
1.16167e-06
1.16166e-06
1.16165e-06
1.16163e-06
1.16368e-06
1.16456e-06
1.16435e-06
1.16324e-06
1.16164e-06
1.16165e-06
1.16166e-06
1.16166e-06
1.16166e-06
1.16165e-06
1.16164e-06
1.16344e-06
1.1637e-06
1.16456e-06
1.16441e-06
1.16358e-06
1.16322e-06
1.16164e-06
1.16165e-06
1.16165e-06
1.16165e-06
1.16164e-06
1.16341e-06
1.16361e-06
1.16376e-06
1.16438e-06
1.16358e-06
1.16324e-06
1.16163e-06
1.16163e-06
1.16163e-06
1.16344e-06
1.16361e-06
1.16374e-06
1.16454e-06
1.16438e-06
1.16366e-06
1.16369e-06
1.16367e-06
1.16368e-06
1.1637e-06
1.16376e-06
1.16454e-06
1.16443e-06
1.16455e-06
1.16455e-06
1.16456e-06
1.16456e-06
1.15416e-06
1.15323e-06
1.15316e-06
1.15321e-06
1.15413e-06
1.15419e-06
1.15419e-06
1.15336e-06
1.15287e-06
1.15141e-06
1.15141e-06
1.15141e-06
1.15302e-06
1.15336e-06
1.15416e-06
1.15336e-06
1.15284e-06
1.15141e-06
1.15142e-06
1.15142e-06
1.15142e-06
1.15141e-06
1.15299e-06
1.15336e-06
1.15416e-06
1.15416e-06
1.15287e-06
1.15141e-06
1.15142e-06
1.15142e-06
1.15143e-06
1.15142e-06
1.15142e-06
1.15141e-06
1.15302e-06
1.15344e-06
1.15421e-06
1.15323e-06
1.15141e-06
1.15142e-06
1.15142e-06
1.15143e-06
1.15143e-06
1.15143e-06
1.15142e-06
1.15142e-06
1.15141e-06
1.15347e-06
1.15433e-06
1.15316e-06
1.15141e-06
1.15142e-06
1.15143e-06
1.15143e-06
1.15144e-06
1.15143e-06
1.15143e-06
1.15142e-06
1.15141e-06
1.15345e-06
1.15433e-06
1.15321e-06
1.15141e-06
1.15142e-06
1.15142e-06
1.15143e-06
1.15143e-06
1.15143e-06
1.15142e-06
1.15142e-06
1.15141e-06
1.15346e-06
1.15434e-06
1.15413e-06
1.15302e-06
1.15141e-06
1.15142e-06
1.15142e-06
1.15143e-06
1.15142e-06
1.15142e-06
1.15141e-06
1.15322e-06
1.15348e-06
1.15434e-06
1.15419e-06
1.15336e-06
1.15299e-06
1.15141e-06
1.15142e-06
1.15142e-06
1.15142e-06
1.15141e-06
1.15318e-06
1.15339e-06
1.15354e-06
1.15416e-06
1.15336e-06
1.15302e-06
1.15141e-06
1.15141e-06
1.15141e-06
1.15322e-06
1.15339e-06
1.15352e-06
1.15432e-06
1.15416e-06
1.15344e-06
1.15347e-06
1.15345e-06
1.15346e-06
1.15348e-06
1.15354e-06
1.15432e-06
1.15421e-06
1.15433e-06
1.15433e-06
1.15434e-06
1.15434e-06
1.14394e-06
1.14301e-06
1.14294e-06
1.14299e-06
1.14391e-06
1.14397e-06
1.14397e-06
1.14314e-06
1.14265e-06
1.14119e-06
1.14119e-06
1.14119e-06
1.14279e-06
1.14314e-06
1.14394e-06
1.14314e-06
1.14262e-06
1.14119e-06
1.14119e-06
1.14119e-06
1.14119e-06
1.14119e-06
1.14277e-06
1.14314e-06
1.14394e-06
1.14394e-06
1.14265e-06
1.14119e-06
1.14119e-06
1.14119e-06
1.1412e-06
1.14119e-06
1.14119e-06
1.14119e-06
1.14279e-06
1.14322e-06
1.14399e-06
1.14301e-06
1.14119e-06
1.14119e-06
1.14119e-06
1.1412e-06
1.1412e-06
1.1412e-06
1.14119e-06
1.14119e-06
1.14119e-06
1.14325e-06
1.14411e-06
1.14294e-06
1.14119e-06
1.14119e-06
1.1412e-06
1.1412e-06
1.1412e-06
1.1412e-06
1.1412e-06
1.14119e-06
1.14119e-06
1.14323e-06
1.14411e-06
1.14299e-06
1.14119e-06
1.14119e-06
1.14119e-06
1.1412e-06
1.1412e-06
1.1412e-06
1.14119e-06
1.14119e-06
1.14119e-06
1.14324e-06
1.14411e-06
1.14391e-06
1.14279e-06
1.14119e-06
1.14119e-06
1.14119e-06
1.1412e-06
1.14119e-06
1.14119e-06
1.14119e-06
1.14299e-06
1.14326e-06
1.14412e-06
1.14397e-06
1.14314e-06
1.14277e-06
1.14119e-06
1.14119e-06
1.14119e-06
1.14119e-06
1.14119e-06
1.14296e-06
1.14317e-06
1.14332e-06
1.14394e-06
1.14314e-06
1.14279e-06
1.14119e-06
1.14119e-06
1.14119e-06
1.14299e-06
1.14317e-06
1.1433e-06
1.1441e-06
1.14394e-06
1.14322e-06
1.14325e-06
1.14323e-06
1.14324e-06
1.14326e-06
1.14332e-06
1.1441e-06
1.14399e-06
1.14411e-06
1.14411e-06
1.14411e-06
1.14412e-06
1.13372e-06
1.13279e-06
1.13272e-06
1.13277e-06
1.13369e-06
1.13375e-06
1.13375e-06
1.13292e-06
1.13243e-06
1.13096e-06
1.13096e-06
1.13096e-06
1.13257e-06
1.13292e-06
1.13372e-06
1.13292e-06
1.13239e-06
1.13096e-06
1.13097e-06
1.13097e-06
1.13097e-06
1.13096e-06
1.13255e-06
1.13292e-06
1.13372e-06
1.13372e-06
1.13243e-06
1.13096e-06
1.13097e-06
1.13097e-06
1.13097e-06
1.13097e-06
1.13097e-06
1.13096e-06
1.13257e-06
1.133e-06
1.13377e-06
1.13279e-06
1.13096e-06
1.13097e-06
1.13097e-06
1.13097e-06
1.13097e-06
1.13097e-06
1.13097e-06
1.13097e-06
1.13096e-06
1.13303e-06
1.13389e-06
1.13272e-06
1.13096e-06
1.13097e-06
1.13097e-06
1.13097e-06
1.13097e-06
1.13097e-06
1.13097e-06
1.13097e-06
1.13096e-06
1.13301e-06
1.13389e-06
1.13277e-06
1.13096e-06
1.13097e-06
1.13097e-06
1.13097e-06
1.13097e-06
1.13097e-06
1.13097e-06
1.13097e-06
1.13096e-06
1.13301e-06
1.13389e-06
1.13369e-06
1.13257e-06
1.13096e-06
1.13097e-06
1.13097e-06
1.13097e-06
1.13097e-06
1.13097e-06
1.13096e-06
1.13277e-06
1.13304e-06
1.1339e-06
1.13375e-06
1.13292e-06
1.13255e-06
1.13096e-06
1.13097e-06
1.13097e-06
1.13097e-06
1.13096e-06
1.13274e-06
1.13295e-06
1.1331e-06
1.13372e-06
1.13292e-06
1.13257e-06
1.13096e-06
1.13096e-06
1.13096e-06
1.13277e-06
1.13295e-06
1.13308e-06
1.13388e-06
1.13372e-06
1.133e-06
1.13303e-06
1.13301e-06
1.13301e-06
1.13304e-06
1.1331e-06
1.13388e-06
1.13377e-06
1.13389e-06
1.13389e-06
1.13389e-06
1.1339e-06
1.1235e-06
1.12257e-06
1.1225e-06
1.12254e-06
1.12347e-06
1.12353e-06
1.12353e-06
1.1227e-06
1.12221e-06
1.12074e-06
1.12074e-06
1.12074e-06
1.12235e-06
1.1227e-06
1.1235e-06
1.1227e-06
1.12217e-06
1.12074e-06
1.12074e-06
1.12074e-06
1.12074e-06
1.12074e-06
1.12233e-06
1.1227e-06
1.1235e-06
1.1235e-06
1.12221e-06
1.12074e-06
1.12074e-06
1.12074e-06
1.12074e-06
1.12074e-06
1.12074e-06
1.12074e-06
1.12235e-06
1.12278e-06
1.12355e-06
1.12257e-06
1.12074e-06
1.12074e-06
1.12074e-06
1.12075e-06
1.12075e-06
1.12075e-06
1.12074e-06
1.12074e-06
1.12074e-06
1.1228e-06
1.12367e-06
1.1225e-06
1.12074e-06
1.12074e-06
1.12074e-06
1.12075e-06
1.12075e-06
1.12075e-06
1.12074e-06
1.12074e-06
1.12074e-06
1.12278e-06
1.12367e-06
1.12254e-06
1.12074e-06
1.12074e-06
1.12074e-06
1.12075e-06
1.12075e-06
1.12075e-06
1.12074e-06
1.12074e-06
1.12074e-06
1.12279e-06
1.12367e-06
1.12347e-06
1.12235e-06
1.12074e-06
1.12074e-06
1.12074e-06
1.12074e-06
1.12074e-06
1.12074e-06
1.12074e-06
1.12255e-06
1.12281e-06
1.12367e-06
1.12353e-06
1.1227e-06
1.12233e-06
1.12074e-06
1.12074e-06
1.12074e-06
1.12074e-06
1.12074e-06
1.12252e-06
1.12273e-06
1.12288e-06
1.1235e-06
1.1227e-06
1.12235e-06
1.12074e-06
1.12074e-06
1.12074e-06
1.12255e-06
1.12273e-06
1.12285e-06
1.12366e-06
1.1235e-06
1.12278e-06
1.1228e-06
1.12278e-06
1.12279e-06
1.12281e-06
1.12288e-06
1.12366e-06
1.12355e-06
1.12367e-06
1.12367e-06
1.12367e-06
1.12367e-06
1.11327e-06
1.11234e-06
1.11227e-06
1.11232e-06
1.11325e-06
1.11331e-06
1.11331e-06
1.11248e-06
1.11198e-06
1.11052e-06
1.11052e-06
1.11052e-06
1.11213e-06
1.11248e-06
1.11328e-06
1.11248e-06
1.11195e-06
1.11052e-06
1.11052e-06
1.11052e-06
1.11052e-06
1.11052e-06
1.11211e-06
1.11248e-06
1.11328e-06
1.11327e-06
1.11198e-06
1.11052e-06
1.11052e-06
1.11052e-06
1.11052e-06
1.11052e-06
1.11052e-06
1.11052e-06
1.11213e-06
1.11256e-06
1.11333e-06
1.11234e-06
1.11052e-06
1.11052e-06
1.11052e-06
1.11052e-06
1.11052e-06
1.11052e-06
1.11052e-06
1.11052e-06
1.11052e-06
1.11258e-06
1.11345e-06
1.11227e-06
1.11052e-06
1.11052e-06
1.11052e-06
1.11052e-06
1.11052e-06
1.11052e-06
1.11052e-06
1.11052e-06
1.11052e-06
1.11256e-06
1.11345e-06
1.11232e-06
1.11052e-06
1.11052e-06
1.11052e-06
1.11052e-06
1.11052e-06
1.11052e-06
1.11052e-06
1.11052e-06
1.11052e-06
1.11257e-06
1.11345e-06
1.11325e-06
1.11213e-06
1.11052e-06
1.11052e-06
1.11052e-06
1.11052e-06
1.11052e-06
1.11052e-06
1.11052e-06
1.11233e-06
1.11259e-06
1.11345e-06
1.11331e-06
1.11248e-06
1.11211e-06
1.11052e-06
1.11052e-06
1.11052e-06
1.11052e-06
1.11052e-06
1.11229e-06
1.11251e-06
1.11266e-06
1.11328e-06
1.11248e-06
1.11213e-06
1.11052e-06
1.11052e-06
1.11052e-06
1.11233e-06
1.11251e-06
1.11263e-06
1.11344e-06
1.11328e-06
1.11256e-06
1.11258e-06
1.11256e-06
1.11257e-06
1.11259e-06
1.11266e-06
1.11344e-06
1.11333e-06
1.11345e-06
1.11345e-06
1.11345e-06
1.11345e-06
1.10305e-06
1.10212e-06
1.10205e-06
1.1021e-06
1.10302e-06
1.10309e-06
1.10309e-06
1.10226e-06
1.10176e-06
1.1003e-06
1.1003e-06
1.1003e-06
1.10191e-06
1.10226e-06
1.10306e-06
1.10226e-06
1.10173e-06
1.1003e-06
1.1003e-06
1.1003e-06
1.1003e-06
1.1003e-06
1.10188e-06
1.10225e-06
1.10306e-06
1.10305e-06
1.10176e-06
1.1003e-06
1.1003e-06
1.1003e-06
1.1003e-06
1.1003e-06
1.1003e-06
1.1003e-06
1.10191e-06
1.10234e-06
1.10311e-06
1.10212e-06
1.1003e-06
1.1003e-06
1.1003e-06
1.1003e-06
1.1003e-06
1.1003e-06
1.1003e-06
1.1003e-06
1.1003e-06
1.10236e-06
1.10323e-06
1.10205e-06
1.1003e-06
1.1003e-06
1.1003e-06
1.1003e-06
1.1003e-06
1.1003e-06
1.1003e-06
1.1003e-06
1.1003e-06
1.10234e-06
1.10323e-06
1.1021e-06
1.1003e-06
1.1003e-06
1.1003e-06
1.1003e-06
1.1003e-06
1.1003e-06
1.1003e-06
1.1003e-06
1.1003e-06
1.10235e-06
1.10323e-06
1.10302e-06
1.10191e-06
1.1003e-06
1.1003e-06
1.1003e-06
1.1003e-06
1.1003e-06
1.1003e-06
1.1003e-06
1.10211e-06
1.10237e-06
1.10323e-06
1.10309e-06
1.10226e-06
1.10188e-06
1.1003e-06
1.1003e-06
1.1003e-06
1.1003e-06
1.1003e-06
1.10207e-06
1.10229e-06
1.10244e-06
1.10306e-06
1.10225e-06
1.10191e-06
1.1003e-06
1.1003e-06
1.1003e-06
1.10211e-06
1.10229e-06
1.10241e-06
1.10322e-06
1.10306e-06
1.10234e-06
1.10236e-06
1.10234e-06
1.10235e-06
1.10237e-06
1.10244e-06
1.10322e-06
1.10311e-06
1.10323e-06
1.10323e-06
1.10323e-06
1.10323e-06
1.09283e-06
1.0919e-06
1.09183e-06
1.09188e-06
1.0928e-06
1.09286e-06
1.09287e-06
1.09203e-06
1.09154e-06
1.09008e-06
1.09008e-06
1.09008e-06
1.09169e-06
1.09204e-06
1.09283e-06
1.09203e-06
1.09151e-06
1.09008e-06
1.09008e-06
1.09008e-06
1.09008e-06
1.09008e-06
1.09166e-06
1.09203e-06
1.09284e-06
1.09283e-06
1.09154e-06
1.09008e-06
1.09008e-06
1.09008e-06
1.09008e-06
1.09008e-06
1.09008e-06
1.09008e-06
1.09169e-06
1.09212e-06
1.09289e-06
1.0919e-06
1.09008e-06
1.09008e-06
1.09008e-06
1.09008e-06
1.09008e-06
1.09008e-06
1.09008e-06
1.09008e-06
1.09008e-06
1.09214e-06
1.09301e-06
1.09183e-06
1.09008e-06
1.09008e-06
1.09008e-06
1.09008e-06
1.09008e-06
1.09008e-06
1.09008e-06
1.09008e-06
1.09008e-06
1.09212e-06
1.09301e-06
1.09188e-06
1.09008e-06
1.09008e-06
1.09008e-06
1.09008e-06
1.09008e-06
1.09008e-06
1.09008e-06
1.09008e-06
1.09008e-06
1.09213e-06
1.09301e-06
1.0928e-06
1.09169e-06
1.09008e-06
1.09008e-06
1.09008e-06
1.09008e-06
1.09008e-06
1.09008e-06
1.09008e-06
1.09189e-06
1.09215e-06
1.09301e-06
1.09286e-06
1.09204e-06
1.09166e-06
1.09008e-06
1.09008e-06
1.09008e-06
1.09008e-06
1.09008e-06
1.09185e-06
1.09206e-06
1.09222e-06
1.09283e-06
1.09203e-06
1.09169e-06
1.09008e-06
1.09008e-06
1.09008e-06
1.09189e-06
1.09206e-06
1.09219e-06
1.093e-06
1.09284e-06
1.09212e-06
1.09214e-06
1.09212e-06
1.09213e-06
1.09215e-06
1.09222e-06
1.093e-06
1.09289e-06
1.09301e-06
1.09301e-06
1.09301e-06
1.09301e-06
1.08261e-06
1.08168e-06
1.08161e-06
1.08166e-06
1.08258e-06
1.08264e-06
1.08265e-06
1.08181e-06
1.08132e-06
1.07986e-06
1.07986e-06
1.07986e-06
1.08147e-06
1.08181e-06
1.08261e-06
1.08181e-06
1.08129e-06
1.07986e-06
1.07986e-06
1.07986e-06
1.07986e-06
1.07986e-06
1.08144e-06
1.08181e-06
1.08262e-06
1.08261e-06
1.08132e-06
1.07986e-06
1.07986e-06
1.07986e-06
1.07986e-06
1.07986e-06
1.07986e-06
1.07986e-06
1.08147e-06
1.0819e-06
1.08267e-06
1.08168e-06
1.07986e-06
1.07986e-06
1.07986e-06
1.07986e-06
1.07986e-06
1.07986e-06
1.07986e-06
1.07986e-06
1.07986e-06
1.08192e-06
1.08279e-06
1.08161e-06
1.07986e-06
1.07986e-06
1.07986e-06
1.07986e-06
1.07986e-06
1.07986e-06
1.07986e-06
1.07986e-06
1.07986e-06
1.0819e-06
1.08279e-06
1.08166e-06
1.07986e-06
1.07986e-06
1.07986e-06
1.07986e-06
1.07986e-06
1.07986e-06
1.07986e-06
1.07986e-06
1.07986e-06
1.08191e-06
1.08279e-06
1.08258e-06
1.08147e-06
1.07986e-06
1.07986e-06
1.07986e-06
1.07986e-06
1.07986e-06
1.07986e-06
1.07986e-06
1.08167e-06
1.08193e-06
1.08279e-06
1.08264e-06
1.08181e-06
1.08144e-06
1.07986e-06
1.07986e-06
1.07986e-06
1.07986e-06
1.07986e-06
1.08163e-06
1.08184e-06
1.08199e-06
1.08261e-06
1.08181e-06
1.08147e-06
1.07986e-06
1.07986e-06
1.07986e-06
1.08167e-06
1.08184e-06
1.08197e-06
1.08278e-06
1.08262e-06
1.0819e-06
1.08192e-06
1.0819e-06
1.08191e-06
1.08193e-06
1.08199e-06
1.08278e-06
1.08267e-06
1.08279e-06
1.08279e-06
1.08279e-06
1.08279e-06
1.07239e-06
1.07146e-06
1.07139e-06
1.07144e-06
1.07236e-06
1.07242e-06
1.07243e-06
1.07159e-06
1.0711e-06
1.06963e-06
1.06963e-06
1.06963e-06
1.07124e-06
1.07159e-06
1.07239e-06
1.07159e-06
1.07107e-06
1.06963e-06
1.06964e-06
1.06963e-06
1.06964e-06
1.06963e-06
1.07122e-06
1.07159e-06
1.0724e-06
1.07239e-06
1.0711e-06
1.06963e-06
1.06964e-06
1.06963e-06
1.06964e-06
1.06963e-06
1.06964e-06
1.06963e-06
1.07124e-06
1.07167e-06
1.07244e-06
1.07146e-06
1.06963e-06
1.06964e-06
1.06963e-06
1.06964e-06
1.06964e-06
1.06964e-06
1.06963e-06
1.06964e-06
1.06963e-06
1.0717e-06
1.07256e-06
1.07139e-06
1.06963e-06
1.06963e-06
1.06964e-06
1.06964e-06
1.06964e-06
1.06964e-06
1.06964e-06
1.06963e-06
1.06963e-06
1.07168e-06
1.07256e-06
1.07144e-06
1.06963e-06
1.06964e-06
1.06963e-06
1.06964e-06
1.06964e-06
1.06964e-06
1.06963e-06
1.06964e-06
1.06963e-06
1.07169e-06
1.07257e-06
1.07236e-06
1.07124e-06
1.06963e-06
1.06964e-06
1.06963e-06
1.06964e-06
1.06963e-06
1.06964e-06
1.06963e-06
1.07144e-06
1.07171e-06
1.07257e-06
1.07242e-06
1.07159e-06
1.07122e-06
1.06963e-06
1.06964e-06
1.06963e-06
1.06964e-06
1.06963e-06
1.07141e-06
1.07162e-06
1.07177e-06
1.07239e-06
1.07159e-06
1.07124e-06
1.06963e-06
1.06963e-06
1.06963e-06
1.07144e-06
1.07162e-06
1.07175e-06
1.07256e-06
1.0724e-06
1.07167e-06
1.0717e-06
1.07168e-06
1.07169e-06
1.07171e-06
1.07177e-06
1.07256e-06
1.07244e-06
1.07256e-06
1.07256e-06
1.07257e-06
1.07257e-06
1.06217e-06
1.06124e-06
1.06117e-06
1.06122e-06
1.06214e-06
1.0622e-06
1.0622e-06
1.06137e-06
1.06088e-06
1.05941e-06
1.05941e-06
1.05941e-06
1.06102e-06
1.06137e-06
1.06217e-06
1.06137e-06
1.06084e-06
1.05941e-06
1.05941e-06
1.05941e-06
1.05941e-06
1.05941e-06
1.061e-06
1.06137e-06
1.06217e-06
1.06217e-06
1.06088e-06
1.05941e-06
1.05941e-06
1.05941e-06
1.05941e-06
1.05941e-06
1.05941e-06
1.05941e-06
1.06102e-06
1.06145e-06
1.06222e-06
1.06124e-06
1.05941e-06
1.05941e-06
1.05941e-06
1.05941e-06
1.05941e-06
1.05941e-06
1.05941e-06
1.05941e-06
1.05941e-06
1.06148e-06
1.06234e-06
1.06117e-06
1.05941e-06
1.05941e-06
1.05941e-06
1.05941e-06
1.05941e-06
1.05941e-06
1.05941e-06
1.05941e-06
1.05941e-06
1.06146e-06
1.06234e-06
1.06122e-06
1.05941e-06
1.05941e-06
1.05941e-06
1.05941e-06
1.05941e-06
1.05941e-06
1.05941e-06
1.05941e-06
1.05941e-06
1.06146e-06
1.06234e-06
1.06214e-06
1.06102e-06
1.05941e-06
1.05941e-06
1.05941e-06
1.05941e-06
1.05941e-06
1.05941e-06
1.05941e-06
1.06122e-06
1.06149e-06
1.06235e-06
1.0622e-06
1.06137e-06
1.061e-06
1.05941e-06
1.05941e-06
1.05941e-06
1.05941e-06
1.05941e-06
1.06119e-06
1.0614e-06
1.06155e-06
1.06217e-06
1.06137e-06
1.06102e-06
1.05941e-06
1.05941e-06
1.05941e-06
1.06122e-06
1.0614e-06
1.06153e-06
1.06233e-06
1.06217e-06
1.06145e-06
1.06148e-06
1.06146e-06
1.06146e-06
1.06149e-06
1.06155e-06
1.06233e-06
1.06222e-06
1.06234e-06
1.06234e-06
1.06234e-06
1.06235e-06
1.05195e-06
1.05102e-06
1.05095e-06
1.051e-06
1.05192e-06
1.05198e-06
1.05198e-06
1.05115e-06
1.05066e-06
1.04919e-06
1.04919e-06
1.04919e-06
1.0508e-06
1.05115e-06
1.05195e-06
1.05115e-06
1.05062e-06
1.04919e-06
1.04919e-06
1.04919e-06
1.04919e-06
1.04919e-06
1.05078e-06
1.05115e-06
1.05195e-06
1.05195e-06
1.05066e-06
1.04919e-06
1.04919e-06
1.04919e-06
1.04919e-06
1.04919e-06
1.04919e-06
1.04919e-06
1.0508e-06
1.05123e-06
1.052e-06
1.05102e-06
1.04919e-06
1.04919e-06
1.04919e-06
1.04919e-06
1.04919e-06
1.04919e-06
1.04919e-06
1.04919e-06
1.04919e-06
1.05125e-06
1.05212e-06
1.05095e-06
1.04919e-06
1.04919e-06
1.04919e-06
1.04919e-06
1.04919e-06
1.04919e-06
1.04919e-06
1.04919e-06
1.04919e-06
1.05124e-06
1.05212e-06
1.051e-06
1.04919e-06
1.04919e-06
1.04919e-06
1.04919e-06
1.04919e-06
1.04919e-06
1.04919e-06
1.04919e-06
1.04919e-06
1.05124e-06
1.05212e-06
1.05192e-06
1.0508e-06
1.04919e-06
1.04919e-06
1.04919e-06
1.04919e-06
1.04919e-06
1.04919e-06
1.04919e-06
1.051e-06
1.05127e-06
1.05213e-06
1.05198e-06
1.05115e-06
1.05078e-06
1.04919e-06
1.04919e-06
1.04919e-06
1.04919e-06
1.04919e-06
1.05097e-06
1.05118e-06
1.05133e-06
1.05195e-06
1.05115e-06
1.0508e-06
1.04919e-06
1.04919e-06
1.04919e-06
1.051e-06
1.05118e-06
1.0513e-06
1.05211e-06
1.05195e-06
1.05123e-06
1.05125e-06
1.05124e-06
1.05124e-06
1.05127e-06
1.05133e-06
1.05211e-06
1.052e-06
1.05212e-06
1.05212e-06
1.05212e-06
1.05213e-06
1.04172e-06
1.0408e-06
1.04072e-06
1.04077e-06
1.0417e-06
1.04176e-06
1.04176e-06
1.04093e-06
1.04044e-06
1.03897e-06
1.03897e-06
1.03897e-06
1.04058e-06
1.04093e-06
1.04173e-06
1.04093e-06
1.0404e-06
1.03897e-06
1.03897e-06
1.03897e-06
1.03897e-06
1.03897e-06
1.04056e-06
1.04093e-06
1.04173e-06
1.04172e-06
1.04044e-06
1.03897e-06
1.03897e-06
1.03897e-06
1.03897e-06
1.03897e-06
1.03897e-06
1.03897e-06
1.04058e-06
1.04101e-06
1.04178e-06
1.0408e-06
1.03897e-06
1.03897e-06
1.03897e-06
1.03897e-06
1.03897e-06
1.03897e-06
1.03897e-06
1.03897e-06
1.03897e-06
1.04103e-06
1.0419e-06
1.04072e-06
1.03897e-06
1.03897e-06
1.03897e-06
1.03897e-06
1.03897e-06
1.03897e-06
1.03897e-06
1.03897e-06
1.03897e-06
1.04101e-06
1.0419e-06
1.04077e-06
1.03897e-06
1.03897e-06
1.03897e-06
1.03897e-06
1.03897e-06
1.03897e-06
1.03897e-06
1.03897e-06
1.03897e-06
1.04102e-06
1.0419e-06
1.0417e-06
1.04058e-06
1.03897e-06
1.03897e-06
1.03897e-06
1.03897e-06
1.03897e-06
1.03897e-06
1.03897e-06
1.04078e-06
1.04104e-06
1.0419e-06
1.04176e-06
1.04093e-06
1.04056e-06
1.03897e-06
1.03897e-06
1.03897e-06
1.03897e-06
1.03897e-06
1.04075e-06
1.04096e-06
1.04111e-06
1.04173e-06
1.04093e-06
1.04058e-06
1.03897e-06
1.03897e-06
1.03897e-06
1.04078e-06
1.04096e-06
1.04108e-06
1.04189e-06
1.04173e-06
1.04101e-06
1.04103e-06
1.04101e-06
1.04102e-06
1.04104e-06
1.04111e-06
1.04189e-06
1.04178e-06
1.0419e-06
1.0419e-06
1.0419e-06
1.0419e-06
1.0315e-06
1.03057e-06
1.0305e-06
1.03055e-06
1.03148e-06
1.03154e-06
1.03154e-06
1.03071e-06
1.03021e-06
1.02875e-06
1.02875e-06
1.02875e-06
1.03036e-06
1.03071e-06
1.03151e-06
1.03071e-06
1.03018e-06
1.02875e-06
1.02875e-06
1.02875e-06
1.02875e-06
1.02875e-06
1.03034e-06
1.0307e-06
1.03151e-06
1.0315e-06
1.03021e-06
1.02875e-06
1.02875e-06
1.02875e-06
1.02875e-06
1.02875e-06
1.02875e-06
1.02875e-06
1.03036e-06
1.03079e-06
1.03156e-06
1.03057e-06
1.02875e-06
1.02875e-06
1.02875e-06
1.02875e-06
1.02875e-06
1.02875e-06
1.02875e-06
1.02875e-06
1.02875e-06
1.03081e-06
1.03168e-06
1.0305e-06
1.02875e-06
1.02875e-06
1.02875e-06
1.02875e-06
1.02875e-06
1.02875e-06
1.02875e-06
1.02875e-06
1.02875e-06
1.03079e-06
1.03168e-06
1.03055e-06
1.02875e-06
1.02875e-06
1.02875e-06
1.02875e-06
1.02875e-06
1.02875e-06
1.02875e-06
1.02875e-06
1.02875e-06
1.0308e-06
1.03168e-06
1.03148e-06
1.03036e-06
1.02875e-06
1.02875e-06
1.02875e-06
1.02875e-06
1.02875e-06
1.02875e-06
1.02875e-06
1.03056e-06
1.03082e-06
1.03168e-06
1.03154e-06
1.03071e-06
1.03034e-06
1.02875e-06
1.02875e-06
1.02875e-06
1.02875e-06
1.02875e-06
1.03052e-06
1.03074e-06
1.03089e-06
1.03151e-06
1.0307e-06
1.03036e-06
1.02875e-06
1.02875e-06
1.02875e-06
1.03056e-06
1.03074e-06
1.03086e-06
1.03167e-06
1.03151e-06
1.03079e-06
1.03081e-06
1.03079e-06
1.0308e-06
1.03082e-06
1.03089e-06
1.03167e-06
1.03156e-06
1.03168e-06
1.03168e-06
1.03168e-06
1.03168e-06
1.02128e-06
1.02035e-06
1.02028e-06
1.02033e-06
1.02125e-06
1.02132e-06
1.02132e-06
1.02048e-06
1.01999e-06
1.01853e-06
1.01853e-06
1.01853e-06
1.02014e-06
1.02049e-06
1.02128e-06
1.02048e-06
1.01996e-06
1.01853e-06
1.01853e-06
1.01853e-06
1.01853e-06
1.01853e-06
1.02011e-06
1.02048e-06
1.02129e-06
1.02128e-06
1.01999e-06
1.01853e-06
1.01853e-06
1.01853e-06
1.01853e-06
1.01853e-06
1.01853e-06
1.01853e-06
1.02014e-06
1.02057e-06
1.02134e-06
1.02035e-06
1.01853e-06
1.01853e-06
1.01853e-06
1.01853e-06
1.01853e-06
1.01853e-06
1.01853e-06
1.01853e-06
1.01853e-06
1.02059e-06
1.02146e-06
1.02028e-06
1.01853e-06
1.01853e-06
1.01853e-06
1.01853e-06
1.01853e-06
1.01853e-06
1.01853e-06
1.01853e-06
1.01853e-06
1.02057e-06
1.02146e-06
1.02033e-06
1.01853e-06
1.01853e-06
1.01853e-06
1.01853e-06
1.01853e-06
1.01853e-06
1.01853e-06
1.01853e-06
1.01853e-06
1.02058e-06
1.02146e-06
1.02125e-06
1.02014e-06
1.01853e-06
1.01853e-06
1.01853e-06
1.01853e-06
1.01853e-06
1.01853e-06
1.01853e-06
1.02034e-06
1.0206e-06
1.02146e-06
1.02132e-06
1.02049e-06
1.02011e-06
1.01853e-06
1.01853e-06
1.01853e-06
1.01853e-06
1.01853e-06
1.0203e-06
1.02051e-06
1.02067e-06
1.02128e-06
1.02048e-06
1.02014e-06
1.01853e-06
1.01853e-06
1.01853e-06
1.02034e-06
1.02051e-06
1.02064e-06
1.02145e-06
1.02129e-06
1.02057e-06
1.02059e-06
1.02057e-06
1.02058e-06
1.0206e-06
1.02067e-06
1.02145e-06
1.02134e-06
1.02146e-06
1.02146e-06
1.02146e-06
1.02146e-06
1.01106e-06
1.01013e-06
1.01006e-06
1.01011e-06
1.01103e-06
1.01109e-06
1.0111e-06
1.01026e-06
1.00977e-06
1.00831e-06
1.00831e-06
1.00831e-06
1.00992e-06
1.01027e-06
1.01106e-06
1.01026e-06
1.00974e-06
1.00831e-06
1.00831e-06
1.00831e-06
1.00831e-06
1.00831e-06
1.00989e-06
1.01026e-06
1.01107e-06
1.01106e-06
1.00977e-06
1.00831e-06
1.00831e-06
1.00831e-06
1.00831e-06
1.00831e-06
1.00831e-06
1.00831e-06
1.00992e-06
1.01035e-06
1.01112e-06
1.01013e-06
1.00831e-06
1.00831e-06
1.00831e-06
1.00831e-06
1.00831e-06
1.00831e-06
1.00831e-06
1.00831e-06
1.00831e-06
1.01037e-06
1.01124e-06
1.01006e-06
1.00831e-06
1.00831e-06
1.00831e-06
1.00831e-06
1.00831e-06
1.00831e-06
1.00831e-06
1.00831e-06
1.00831e-06
1.01035e-06
1.01124e-06
1.01011e-06
1.00831e-06
1.00831e-06
1.00831e-06
1.00831e-06
1.00831e-06