/*--------------------------------*- C++ -*----------------------------------*\
| =========                 |                                                 |
| \\      /  F ield         | OpenFOAM: The Open Source CFD Toolbox           |
|  \\    /   O peration     | Version:  v2012                                 |
|   \\  /    A nd           | Website:  www.openfoam.com                      |
|    \\/     M anipulation  |                                                 |
\*---------------------------------------------------------------------------*/
FoamFile
{
    version     2.0;
    format      ascii;
    class       volScalarField;
    location    "14";
    object      p;
}
// * * * * * * * * * * * * * * * * * * * * * * * * * * * * * * * * * * * * * //

dimensions      [0 2 -2 0 0 0 0];


internalField   nonuniform List<scalar> 
292667
(
1.75291e-06
1.73914e-06
1.73791e-06
1.73803e-06
1.73981e-06
1.75395e-06
1.73943e-06
1.73508e-06
1.73261e-06
1.73162e-06
1.73176e-06
1.73307e-06
1.73597e-06
1.7408e-06
1.73943e-06
1.73383e-06
1.73052e-06
1.72871e-06
1.72795e-06
1.72806e-06
1.72905e-06
1.73117e-06
1.73499e-06
1.7412e-06
1.75291e-06
1.73508e-06
1.73052e-06
1.72789e-06
1.72642e-06
1.72579e-06
1.72588e-06
1.7267e-06
1.72842e-06
1.73143e-06
1.73665e-06
1.75378e-06
1.73914e-06
1.73261e-06
1.72871e-06
1.72642e-06
1.72512e-06
1.72456e-06
1.72464e-06
1.72537e-06
1.72689e-06
1.7295e-06
1.73398e-06
1.74504e-06
1.73791e-06
1.73162e-06
1.72795e-06
1.72579e-06
1.72456e-06
1.72402e-06
1.7241e-06
1.7248e-06
1.72623e-06
1.72869e-06
1.73291e-06
1.74232e-06
1.73803e-06
1.73176e-06
1.72806e-06
1.72588e-06
1.72464e-06
1.7241e-06
1.72418e-06
1.72488e-06
1.72632e-06
1.72881e-06
1.73305e-06
1.74261e-06
1.73981e-06
1.73307e-06
1.72905e-06
1.7267e-06
1.72537e-06
1.7248e-06
1.72488e-06
1.72563e-06
1.72718e-06
1.72986e-06
1.73449e-06
1.74554e-06
1.75395e-06
1.73597e-06
1.73117e-06
1.72842e-06
1.72689e-06
1.72623e-06
1.72632e-06
1.72718e-06
1.72897e-06
1.73214e-06
1.73758e-06
1.75418e-06
1.7408e-06
1.73499e-06
1.73143e-06
1.7295e-06
1.72869e-06
1.7288e-06
1.72986e-06
1.73214e-06
1.73622e-06
1.74593e-06
1.7412e-06
1.73665e-06
1.73398e-06
1.73291e-06
1.73305e-06
1.73449e-06
1.73758e-06
1.74593e-06
1.75378e-06
1.74504e-06
1.74232e-06
1.7426e-06
1.74554e-06
1.75418e-06
1.71358e-06
1.71198e-06
1.71193e-06
1.71198e-06
1.71334e-06
1.7134e-06
1.71366e-06
1.71234e-06
1.7118e-06
1.70946e-06
1.70941e-06
1.70946e-06
1.71183e-06
1.71217e-06
1.71349e-06
1.71233e-06
1.71179e-06
1.70959e-06
1.70942e-06
1.70942e-06
1.70942e-06
1.70959e-06
1.71174e-06
1.71216e-06
1.71346e-06
1.71358e-06
1.7118e-06
1.70959e-06
1.70947e-06
1.70944e-06
1.70943e-06
1.70944e-06
1.70946e-06
1.70959e-06
1.71173e-06
1.71222e-06
1.71367e-06
1.71198e-06
1.70946e-06
1.70942e-06
1.70945e-06
1.70941e-06
1.7094e-06
1.70941e-06
1.70944e-06
1.70942e-06
1.70946e-06
1.71214e-06
1.71349e-06
1.71193e-06
1.70941e-06
1.70942e-06
1.70943e-06
1.7094e-06
1.70939e-06
1.7094e-06
1.70943e-06
1.70942e-06
1.70941e-06
1.71203e-06
1.71317e-06
1.71198e-06
1.70946e-06
1.70942e-06
1.70944e-06
1.70941e-06
1.7094e-06
1.70941e-06
1.70944e-06
1.70941e-06
1.70946e-06
1.71208e-06
1.71326e-06
1.71334e-06
1.71183e-06
1.70959e-06
1.70946e-06
1.70944e-06
1.70943e-06
1.70944e-06
1.70946e-06
1.70959e-06
1.71167e-06
1.7122e-06
1.71355e-06
1.7134e-06
1.71217e-06
1.71174e-06
1.70959e-06
1.70942e-06
1.70942e-06
1.70942e-06
1.70959e-06
1.71163e-06
1.71206e-06
1.71229e-06
1.71349e-06
1.71216e-06
1.71173e-06
1.70946e-06
1.70941e-06
1.70946e-06
1.71167e-06
1.71206e-06
1.71239e-06
1.71367e-06
1.71346e-06
1.71222e-06
1.71214e-06
1.71203e-06
1.71208e-06
1.71221e-06
1.7123e-06
1.71367e-06
1.71367e-06
1.71349e-06
1.71317e-06
1.71326e-06
1.71355e-06
1.69889e-06
1.6974e-06
1.69734e-06
1.69736e-06
1.69873e-06
1.69889e-06
1.69898e-06
1.69762e-06
1.69707e-06
1.6947e-06
1.69469e-06
1.6947e-06
1.69712e-06
1.6975e-06
1.69879e-06
1.69762e-06
1.69708e-06
1.69476e-06
1.69473e-06
1.69476e-06
1.69473e-06
1.69476e-06
1.69706e-06
1.69747e-06
1.6988e-06
1.69889e-06
1.69707e-06
1.69476e-06
1.69476e-06
1.69482e-06
1.69483e-06
1.69482e-06
1.69476e-06
1.69476e-06
1.69704e-06
1.69757e-06
1.69895e-06
1.69739e-06
1.6947e-06
1.69473e-06
1.69482e-06
1.69485e-06
1.69486e-06
1.69485e-06
1.69482e-06
1.69473e-06
1.6947e-06
1.69748e-06
1.69896e-06
1.69734e-06
1.69469e-06
1.69476e-06
1.69483e-06
1.69486e-06
1.69487e-06
1.69486e-06
1.69483e-06
1.69476e-06
1.69469e-06
1.69741e-06
1.69889e-06
1.69736e-06
1.6947e-06
1.69473e-06
1.69482e-06
1.69485e-06
1.69486e-06
1.69485e-06
1.69482e-06
1.69473e-06
1.6947e-06
1.69744e-06
1.69889e-06
1.69873e-06
1.69712e-06
1.69476e-06
1.69476e-06
1.69482e-06
1.69483e-06
1.69482e-06
1.69476e-06
1.69476e-06
1.69704e-06
1.69754e-06
1.699e-06
1.69889e-06
1.6975e-06
1.69706e-06
1.69476e-06
1.69473e-06
1.69476e-06
1.69473e-06
1.69476e-06
1.69701e-06
1.69737e-06
1.69768e-06
1.69879e-06
1.69747e-06
1.69704e-06
1.6947e-06
1.69469e-06
1.6947e-06
1.69704e-06
1.69737e-06
1.69765e-06
1.699e-06
1.6988e-06
1.69757e-06
1.69748e-06
1.69741e-06
1.69744e-06
1.69753e-06
1.69768e-06
1.69901e-06
1.69895e-06
1.69896e-06
1.69889e-06
1.69889e-06
1.699e-06
1.6844e-06
1.68288e-06
1.6828e-06
1.68284e-06
1.68423e-06
1.68441e-06
1.6845e-06
1.68311e-06
1.68249e-06
1.6801e-06
1.6801e-06
1.6801e-06
1.68254e-06
1.683e-06
1.6843e-06
1.68311e-06
1.68248e-06
1.68014e-06
1.68014e-06
1.68016e-06
1.68014e-06
1.68014e-06
1.6825e-06
1.68298e-06
1.68431e-06
1.6844e-06
1.68249e-06
1.68014e-06
1.68016e-06
1.68021e-06
1.68022e-06
1.68021e-06
1.68016e-06
1.68014e-06
1.6825e-06
1.68308e-06
1.68447e-06
1.68288e-06
1.6801e-06
1.68014e-06
1.68021e-06
1.68024e-06
1.68025e-06
1.68024e-06
1.68021e-06
1.68014e-06
1.6801e-06
1.68296e-06
1.68447e-06
1.6828e-06
1.6801e-06
1.68016e-06
1.68022e-06
1.68025e-06
1.68026e-06
1.68025e-06
1.68022e-06
1.68016e-06
1.6801e-06
1.68288e-06
1.68439e-06
1.68284e-06
1.6801e-06
1.68014e-06
1.68021e-06
1.68024e-06
1.68025e-06
1.68024e-06
1.68021e-06
1.68014e-06
1.6801e-06
1.68292e-06
1.68439e-06
1.68423e-06
1.68254e-06
1.68014e-06
1.68016e-06
1.68021e-06
1.68022e-06
1.68021e-06
1.68016e-06
1.68014e-06
1.68252e-06
1.68304e-06
1.68451e-06
1.68441e-06
1.683e-06
1.6825e-06
1.68014e-06
1.68014e-06
1.68016e-06
1.68014e-06
1.68014e-06
1.68249e-06
1.68287e-06
1.68319e-06
1.6843e-06
1.68298e-06
1.6825e-06
1.6801e-06
1.6801e-06
1.6801e-06
1.68252e-06
1.68287e-06
1.68316e-06
1.68453e-06
1.68431e-06
1.68308e-06
1.68296e-06
1.68288e-06
1.68292e-06
1.68304e-06
1.68319e-06
1.68452e-06
1.68447e-06
1.68447e-06
1.68439e-06
1.68439e-06
1.68451e-06
1.6699e-06
1.66837e-06
1.66828e-06
1.66832e-06
1.66973e-06
1.6699e-06
1.66999e-06
1.66859e-06
1.66796e-06
1.66556e-06
1.66556e-06
1.66556e-06
1.66801e-06
1.66849e-06
1.66979e-06
1.66859e-06
1.66793e-06
1.66558e-06
1.66558e-06
1.6656e-06
1.66558e-06
1.66558e-06
1.66796e-06
1.66847e-06
1.66981e-06
1.66989e-06
1.66796e-06
1.66558e-06
1.66559e-06
1.66562e-06
1.66563e-06
1.66562e-06
1.66559e-06
1.66558e-06
1.66797e-06
1.66857e-06
1.66996e-06
1.66837e-06
1.66556e-06
1.66558e-06
1.66562e-06
1.66565e-06
1.66565e-06
1.66565e-06
1.66562e-06
1.66558e-06
1.66556e-06
1.66845e-06
1.66996e-06
1.66828e-06
1.66556e-06
1.6656e-06
1.66563e-06
1.66566e-06
1.66566e-06
1.66566e-06
1.66563e-06
1.6656e-06
1.66556e-06
1.66837e-06
1.66988e-06
1.66832e-06
1.66556e-06
1.66558e-06
1.66562e-06
1.66565e-06
1.66566e-06
1.66565e-06
1.66562e-06
1.66558e-06
1.66556e-06
1.66841e-06
1.66989e-06
1.66973e-06
1.66801e-06
1.66558e-06
1.66559e-06
1.66562e-06
1.66563e-06
1.66562e-06
1.66559e-06
1.66558e-06
1.66801e-06
1.66853e-06
1.67e-06
1.6699e-06
1.66849e-06
1.66796e-06
1.66558e-06
1.66558e-06
1.6656e-06
1.66558e-06
1.66558e-06
1.66797e-06
1.66836e-06
1.66868e-06
1.66979e-06
1.66847e-06
1.66797e-06
1.66556e-06
1.66556e-06
1.66556e-06
1.66801e-06
1.66836e-06
1.66865e-06
1.67002e-06
1.66981e-06
1.66857e-06
1.66845e-06
1.66836e-06
1.6684e-06
1.66853e-06
1.66868e-06
1.67002e-06
1.66996e-06
1.66996e-06
1.66988e-06
1.66989e-06
1.67e-06
1.65538e-06
1.65385e-06
1.65377e-06
1.65381e-06
1.65521e-06
1.65539e-06
1.65548e-06
1.65407e-06
1.65343e-06
1.65103e-06
1.65103e-06
1.65103e-06
1.65349e-06
1.65397e-06
1.65528e-06
1.65407e-06
1.65341e-06
1.65104e-06
1.65104e-06
1.65105e-06
1.65104e-06
1.65104e-06
1.65343e-06
1.65396e-06
1.6553e-06
1.65538e-06
1.65343e-06
1.65104e-06
1.65105e-06
1.65107e-06
1.65107e-06
1.65107e-06
1.65105e-06
1.65104e-06
1.65345e-06
1.65406e-06
1.65545e-06
1.65385e-06
1.65103e-06
1.65104e-06
1.65107e-06
1.65108e-06
1.65109e-06
1.65108e-06
1.65107e-06
1.65104e-06
1.65103e-06
1.65394e-06
1.65545e-06
1.65377e-06
1.65103e-06
1.65105e-06
1.65107e-06
1.65109e-06
1.65109e-06
1.65109e-06
1.65107e-06
1.65105e-06
1.65103e-06
1.65385e-06
1.65537e-06
1.65381e-06
1.65103e-06
1.65104e-06
1.65107e-06
1.65108e-06
1.65109e-06
1.65108e-06
1.65107e-06
1.65104e-06
1.65103e-06
1.65389e-06
1.65538e-06
1.65521e-06
1.65349e-06
1.65104e-06
1.65105e-06
1.65107e-06
1.65107e-06
1.65107e-06
1.65105e-06
1.65104e-06
1.65349e-06
1.65402e-06
1.65549e-06
1.65539e-06
1.65397e-06
1.65343e-06
1.65104e-06
1.65104e-06
1.65105e-06
1.65104e-06
1.65104e-06
1.65345e-06
1.65385e-06
1.65417e-06
1.65528e-06
1.65396e-06
1.65345e-06
1.65103e-06
1.65103e-06
1.65103e-06
1.65349e-06
1.65385e-06
1.65414e-06
1.65551e-06
1.6553e-06
1.65406e-06
1.65394e-06
1.65385e-06
1.65389e-06
1.65402e-06
1.65417e-06
1.65551e-06
1.65545e-06
1.65545e-06
1.65537e-06
1.65538e-06
1.65549e-06
1.64087e-06
1.63934e-06
1.63925e-06
1.63929e-06
1.6407e-06
1.64088e-06
1.64097e-06
1.63956e-06
1.63892e-06
1.63651e-06
1.63651e-06
1.63651e-06
1.63897e-06
1.63946e-06
1.64077e-06
1.63956e-06
1.63889e-06
1.63651e-06
1.63652e-06
1.63652e-06
1.63652e-06
1.63651e-06
1.63891e-06
1.63944e-06
1.64078e-06
1.64087e-06
1.63892e-06
1.63651e-06
1.63652e-06
1.63653e-06
1.63653e-06
1.63653e-06
1.63652e-06
1.63651e-06
1.63893e-06
1.63954e-06
1.64094e-06
1.63934e-06
1.63651e-06
1.63652e-06
1.63653e-06
1.63654e-06
1.63654e-06
1.63654e-06
1.63653e-06
1.63652e-06
1.63651e-06
1.63942e-06
1.64094e-06
1.63925e-06
1.63651e-06
1.63652e-06
1.63653e-06
1.63654e-06
1.63655e-06
1.63654e-06
1.63653e-06
1.63652e-06
1.63651e-06
1.63933e-06
1.64086e-06
1.63929e-06
1.63651e-06
1.63652e-06
1.63653e-06
1.63654e-06
1.63654e-06
1.63654e-06
1.63653e-06
1.63652e-06
1.63651e-06
1.63938e-06
1.64086e-06
1.6407e-06
1.63897e-06
1.63651e-06
1.63652e-06
1.63653e-06
1.63653e-06
1.63653e-06
1.63652e-06
1.63651e-06
1.63898e-06
1.6395e-06
1.64098e-06
1.64088e-06
1.63946e-06
1.63891e-06
1.63651e-06
1.63652e-06
1.63652e-06
1.63652e-06
1.63651e-06
1.63894e-06
1.63934e-06
1.63966e-06
1.64077e-06
1.63944e-06
1.63893e-06
1.63651e-06
1.63651e-06
1.63651e-06
1.63898e-06
1.63934e-06
1.63963e-06
1.641e-06
1.64078e-06
1.63954e-06
1.63942e-06
1.63933e-06
1.63937e-06
1.6395e-06
1.63966e-06
1.641e-06
1.64094e-06
1.64094e-06
1.64086e-06
1.64086e-06
1.64098e-06
1.62636e-06
1.62482e-06
1.62474e-06
1.62478e-06
1.62619e-06
1.62636e-06
1.62645e-06
1.62504e-06
1.6244e-06
1.62199e-06
1.62199e-06
1.62199e-06
1.62445e-06
1.62495e-06
1.62626e-06
1.62504e-06
1.62437e-06
1.62199e-06
1.622e-06
1.622e-06
1.622e-06
1.62199e-06
1.6244e-06
1.62493e-06
1.62627e-06
1.62636e-06
1.6244e-06
1.62199e-06
1.622e-06
1.622e-06
1.622e-06
1.622e-06
1.622e-06
1.62199e-06
1.62442e-06
1.62503e-06
1.62642e-06
1.62482e-06
1.62199e-06
1.622e-06
1.622e-06
1.62201e-06
1.62201e-06
1.62201e-06
1.622e-06
1.622e-06
1.62199e-06
1.62491e-06
1.62642e-06
1.62474e-06
1.62199e-06
1.622e-06
1.622e-06
1.62201e-06
1.62201e-06
1.62201e-06
1.622e-06
1.622e-06
1.62199e-06
1.62482e-06
1.62634e-06
1.62478e-06
1.62199e-06
1.622e-06
1.622e-06
1.62201e-06
1.62201e-06
1.62201e-06
1.622e-06
1.622e-06
1.62199e-06
1.62486e-06
1.62635e-06
1.62619e-06
1.62445e-06
1.62199e-06
1.622e-06
1.622e-06
1.622e-06
1.622e-06
1.622e-06
1.62199e-06
1.62446e-06
1.62499e-06
1.62646e-06
1.62636e-06
1.62495e-06
1.6244e-06
1.62199e-06
1.622e-06
1.622e-06
1.622e-06
1.62199e-06
1.62442e-06
1.62482e-06
1.62515e-06
1.62626e-06
1.62493e-06
1.62442e-06
1.62199e-06
1.62199e-06
1.62199e-06
1.62446e-06
1.62482e-06
1.62511e-06
1.62648e-06
1.62627e-06
1.62503e-06
1.62491e-06
1.62482e-06
1.62486e-06
1.62499e-06
1.62515e-06
1.62648e-06
1.62642e-06
1.62642e-06
1.62634e-06
1.62635e-06
1.62646e-06
1.61184e-06
1.61031e-06
1.61022e-06
1.61026e-06
1.61167e-06
1.61185e-06
1.61194e-06
1.61053e-06
1.60989e-06
1.60747e-06
1.60748e-06
1.60747e-06
1.60994e-06
1.61043e-06
1.61174e-06
1.61053e-06
1.60985e-06
1.60748e-06
1.60748e-06
1.60748e-06
1.60748e-06
1.60748e-06
1.60988e-06
1.61041e-06
1.61175e-06
1.61184e-06
1.60989e-06
1.60748e-06
1.60748e-06
1.60748e-06
1.60748e-06
1.60748e-06
1.60748e-06
1.60748e-06
1.6099e-06
1.61052e-06
1.61191e-06
1.61031e-06
1.60747e-06
1.60748e-06
1.60748e-06
1.60748e-06
1.60748e-06
1.60748e-06
1.60748e-06
1.60748e-06
1.60747e-06
1.61039e-06
1.61191e-06
1.61022e-06
1.60748e-06
1.60748e-06
1.60748e-06
1.60748e-06
1.60749e-06
1.60748e-06
1.60748e-06
1.60748e-06
1.60747e-06
1.6103e-06
1.61183e-06
1.61026e-06
1.60747e-06
1.60748e-06
1.60748e-06
1.60748e-06
1.60748e-06
1.60748e-06
1.60748e-06
1.60748e-06
1.60747e-06
1.61035e-06
1.61183e-06
1.61167e-06
1.60994e-06
1.60748e-06
1.60748e-06
1.60748e-06
1.60748e-06
1.60748e-06
1.60748e-06
1.60748e-06
1.60995e-06
1.61048e-06
1.61195e-06
1.61185e-06
1.61043e-06
1.60988e-06
1.60748e-06
1.60748e-06
1.60748e-06
1.60748e-06
1.60748e-06
1.60991e-06
1.61031e-06
1.61063e-06
1.61174e-06
1.61041e-06
1.6099e-06
1.60747e-06
1.60748e-06
1.60747e-06
1.60995e-06
1.61031e-06
1.6106e-06
1.61197e-06
1.61175e-06
1.61052e-06
1.61039e-06
1.61031e-06
1.61035e-06
1.61048e-06
1.61063e-06
1.61197e-06
1.61191e-06
1.61191e-06
1.61183e-06
1.61183e-06
1.61195e-06
1.59733e-06
1.59579e-06
1.59571e-06
1.59575e-06
1.59716e-06
1.59733e-06
1.59742e-06
1.59601e-06
1.59537e-06
1.59296e-06
1.59296e-06
1.59296e-06
1.59542e-06
1.59592e-06
1.59723e-06
1.59601e-06
1.59534e-06
1.59296e-06
1.59296e-06
1.59296e-06
1.59296e-06
1.59296e-06
1.59537e-06
1.5959e-06
1.59724e-06
1.59733e-06
1.59537e-06
1.59296e-06
1.59296e-06
1.59296e-06
1.59296e-06
1.59296e-06
1.59296e-06
1.59296e-06
1.59539e-06
1.596e-06
1.5974e-06
1.59579e-06
1.59296e-06
1.59296e-06
1.59296e-06
1.59296e-06
1.59296e-06
1.59296e-06
1.59296e-06
1.59296e-06
1.59296e-06
1.59588e-06
1.59739e-06
1.59571e-06
1.59296e-06
1.59296e-06
1.59296e-06
1.59296e-06
1.59297e-06
1.59296e-06
1.59296e-06
1.59296e-06
1.59296e-06
1.59579e-06
1.59732e-06
1.59575e-06
1.59296e-06
1.59296e-06
1.59296e-06
1.59296e-06
1.59296e-06
1.59296e-06
1.59296e-06
1.59296e-06
1.59296e-06
1.59583e-06
1.59732e-06
1.59716e-06
1.59542e-06
1.59296e-06
1.59296e-06
1.59296e-06
1.59296e-06
1.59296e-06
1.59296e-06
1.59296e-06
1.59543e-06
1.59596e-06
1.59743e-06
1.59733e-06
1.59592e-06
1.59537e-06
1.59296e-06
1.59296e-06
1.59296e-06
1.59296e-06
1.59296e-06
1.59539e-06
1.59579e-06
1.59612e-06
1.59723e-06
1.5959e-06
1.59539e-06
1.59296e-06
1.59296e-06
1.59296e-06
1.59543e-06
1.59579e-06
1.59608e-06
1.59746e-06
1.59724e-06
1.596e-06
1.59588e-06
1.59579e-06
1.59583e-06
1.59596e-06
1.59612e-06
1.59746e-06
1.5974e-06
1.59739e-06
1.59732e-06
1.59732e-06
1.59743e-06
1.58281e-06
1.58128e-06
1.58119e-06
1.58123e-06
1.58264e-06
1.58282e-06
1.58291e-06
1.5815e-06
1.58086e-06
1.57844e-06
1.57844e-06
1.57844e-06
1.58091e-06
1.5814e-06
1.58271e-06
1.5815e-06
1.58082e-06
1.57844e-06
1.57844e-06
1.57844e-06
1.57844e-06
1.57844e-06
1.58085e-06
1.58138e-06
1.58272e-06
1.58281e-06
1.58086e-06
1.57844e-06
1.57844e-06
1.57845e-06
1.57845e-06
1.57845e-06
1.57844e-06
1.57844e-06
1.58087e-06
1.58149e-06
1.58288e-06
1.58128e-06
1.57844e-06
1.57844e-06
1.57845e-06
1.57845e-06
1.57845e-06
1.57845e-06
1.57845e-06
1.57844e-06
1.57844e-06
1.58136e-06
1.58288e-06
1.58119e-06
1.57844e-06
1.57844e-06
1.57845e-06
1.57845e-06
1.57845e-06
1.57845e-06
1.57845e-06
1.57844e-06
1.57844e-06
1.58127e-06
1.5828e-06
1.58123e-06
1.57844e-06
1.57844e-06
1.57845e-06
1.57845e-06
1.57845e-06
1.57845e-06
1.57845e-06
1.57844e-06
1.57844e-06
1.58132e-06
1.5828e-06
1.58264e-06
1.58091e-06
1.57844e-06
1.57844e-06
1.57845e-06
1.57845e-06
1.57845e-06
1.57844e-06
1.57844e-06
1.58092e-06
1.58145e-06
1.58292e-06
1.58282e-06
1.5814e-06
1.58085e-06
1.57844e-06
1.57844e-06
1.57844e-06
1.57844e-06
1.57844e-06
1.58087e-06
1.58128e-06
1.5816e-06
1.58271e-06
1.58138e-06
1.58087e-06
1.57844e-06
1.57844e-06
1.57844e-06
1.58092e-06
1.58128e-06
1.58157e-06
1.58294e-06
1.58272e-06
1.58149e-06
1.58136e-06
1.58127e-06
1.58132e-06
1.58145e-06
1.5816e-06
1.58294e-06
1.58288e-06
1.58288e-06
1.5828e-06
1.5828e-06
1.58292e-06
1.5683e-06
1.56676e-06
1.56668e-06
1.56672e-06
1.56813e-06
1.5683e-06
1.56839e-06
1.56698e-06
1.56634e-06
1.56393e-06
1.56393e-06
1.56393e-06
1.56639e-06
1.56689e-06
1.5682e-06
1.56698e-06
1.56631e-06
1.56393e-06
1.56393e-06
1.56393e-06
1.56393e-06
1.56393e-06
1.56634e-06
1.56687e-06
1.56821e-06
1.5683e-06
1.56634e-06
1.56393e-06
1.56393e-06
1.56393e-06
1.56393e-06
1.56393e-06
1.56393e-06
1.56393e-06
1.56636e-06
1.56697e-06
1.56837e-06
1.56676e-06
1.56393e-06
1.56393e-06
1.56393e-06
1.56393e-06
1.56393e-06
1.56393e-06
1.56393e-06
1.56393e-06
1.56393e-06
1.56685e-06
1.56836e-06
1.56668e-06
1.56393e-06
1.56393e-06
1.56393e-06
1.56393e-06
1.56393e-06
1.56393e-06
1.56393e-06
1.56393e-06
1.56393e-06
1.56676e-06
1.56829e-06
1.56672e-06
1.56393e-06
1.56393e-06
1.56393e-06
1.56393e-06
1.56393e-06
1.56393e-06
1.56393e-06
1.56393e-06
1.56393e-06
1.5668e-06
1.56829e-06
1.56813e-06
1.56639e-06
1.56393e-06
1.56393e-06
1.56393e-06
1.56393e-06
1.56393e-06
1.56393e-06
1.56393e-06
1.5664e-06
1.56693e-06
1.5684e-06
1.5683e-06
1.56689e-06
1.56634e-06
1.56393e-06
1.56393e-06
1.56393e-06
1.56393e-06
1.56393e-06
1.56636e-06
1.56676e-06
1.56709e-06
1.5682e-06
1.56687e-06
1.56636e-06
1.56393e-06
1.56393e-06
1.56393e-06
1.5664e-06
1.56676e-06
1.56705e-06
1.56843e-06
1.56821e-06
1.56697e-06
1.56685e-06
1.56676e-06
1.5668e-06
1.56693e-06
1.56709e-06
1.56843e-06
1.56837e-06
1.56836e-06
1.56829e-06
1.56829e-06
1.5684e-06
1.55378e-06
1.55225e-06
1.55216e-06
1.5522e-06
1.55361e-06
1.55379e-06
1.55388e-06
1.55247e-06
1.55182e-06
1.54941e-06
1.54941e-06
1.54941e-06
1.55188e-06
1.55237e-06
1.55368e-06
1.55247e-06
1.55179e-06
1.54941e-06
1.54941e-06
1.54941e-06
1.54941e-06
1.54941e-06
1.55182e-06
1.55235e-06
1.55369e-06
1.55378e-06
1.55182e-06
1.54941e-06
1.54941e-06
1.54941e-06
1.54941e-06
1.54941e-06
1.54941e-06
1.54941e-06
1.55184e-06
1.55246e-06
1.55385e-06
1.55225e-06
1.54941e-06
1.54941e-06
1.54941e-06
1.54941e-06
1.54941e-06
1.54941e-06
1.54941e-06
1.54941e-06
1.54941e-06
1.55233e-06
1.55385e-06
1.55216e-06
1.54941e-06
1.54941e-06
1.54941e-06
1.54941e-06
1.54941e-06
1.54941e-06
1.54941e-06
1.54941e-06
1.54941e-06
1.55225e-06
1.55377e-06
1.5522e-06
1.54941e-06
1.54941e-06
1.54941e-06
1.54941e-06
1.54941e-06
1.54941e-06
1.54941e-06
1.54941e-06
1.54941e-06
1.55229e-06
1.55377e-06
1.55361e-06
1.55188e-06
1.54941e-06
1.54941e-06
1.54941e-06
1.54941e-06
1.54941e-06
1.54941e-06
1.54941e-06
1.55189e-06
1.55242e-06
1.55389e-06
1.55379e-06
1.55237e-06
1.55182e-06
1.54941e-06
1.54941e-06
1.54941e-06
1.54941e-06
1.54941e-06
1.55184e-06
1.55225e-06
1.55257e-06
1.55368e-06
1.55235e-06
1.55184e-06
1.54941e-06
1.54941e-06
1.54941e-06
1.55189e-06
1.55225e-06
1.55254e-06
1.55391e-06
1.55369e-06
1.55246e-06
1.55233e-06
1.55224e-06
1.55229e-06
1.55242e-06
1.55257e-06
1.55391e-06
1.55385e-06
1.55385e-06
1.55377e-06
1.55377e-06
1.55389e-06
1.53927e-06
1.53773e-06
1.53765e-06
1.53769e-06
1.5391e-06
1.53927e-06
1.53936e-06
1.53795e-06
1.53731e-06
1.5349e-06
1.5349e-06
1.5349e-06
1.53736e-06
1.53786e-06
1.53917e-06
1.53795e-06
1.53728e-06
1.5349e-06
1.5349e-06
1.5349e-06
1.5349e-06
1.5349e-06
1.53731e-06
1.53784e-06
1.53918e-06
1.53927e-06
1.53731e-06
1.5349e-06
1.5349e-06
1.5349e-06
1.5349e-06
1.5349e-06
1.5349e-06
1.5349e-06
1.53733e-06
1.53794e-06
1.53934e-06
1.53773e-06
1.5349e-06
1.5349e-06
1.5349e-06
1.5349e-06
1.5349e-06
1.5349e-06
1.5349e-06
1.5349e-06
1.5349e-06
1.53782e-06
1.53933e-06
1.53765e-06
1.5349e-06
1.5349e-06
1.5349e-06
1.5349e-06
1.5349e-06
1.5349e-06
1.5349e-06
1.5349e-06
1.5349e-06
1.53773e-06
1.53926e-06
1.53769e-06
1.5349e-06
1.5349e-06
1.5349e-06
1.5349e-06
1.5349e-06
1.5349e-06
1.5349e-06
1.5349e-06
1.5349e-06
1.53777e-06
1.53926e-06
1.5391e-06
1.53736e-06
1.5349e-06
1.5349e-06
1.5349e-06
1.5349e-06
1.5349e-06
1.5349e-06
1.5349e-06
1.53737e-06
1.5379e-06
1.53937e-06
1.53927e-06
1.53786e-06
1.53731e-06
1.5349e-06
1.5349e-06
1.5349e-06
1.5349e-06
1.5349e-06
1.53733e-06
1.53773e-06
1.53806e-06
1.53917e-06
1.53784e-06
1.53733e-06
1.5349e-06
1.5349e-06
1.5349e-06
1.53737e-06
1.53773e-06
1.53802e-06
1.5394e-06
1.53918e-06
1.53794e-06
1.53782e-06
1.53773e-06
1.53777e-06
1.5379e-06
1.53806e-06
1.5394e-06
1.53934e-06
1.53933e-06
1.53926e-06
1.53926e-06
1.53937e-06
1.52475e-06
1.52322e-06
1.52313e-06
1.52317e-06
1.52458e-06
1.52476e-06
1.52485e-06
1.52344e-06
1.52279e-06
1.52038e-06
1.52038e-06
1.52038e-06
1.52285e-06
1.52334e-06
1.52465e-06
1.52344e-06
1.52276e-06
1.52038e-06
1.52038e-06
1.52038e-06
1.52038e-06
1.52038e-06
1.52279e-06
1.52332e-06
1.52466e-06
1.52475e-06
1.52279e-06
1.52038e-06
1.52038e-06
1.52038e-06
1.52038e-06
1.52038e-06
1.52038e-06
1.52038e-06
1.52281e-06
1.52343e-06
1.52482e-06
1.52322e-06
1.52038e-06
1.52038e-06
1.52038e-06
1.52038e-06
1.52038e-06
1.52038e-06
1.52038e-06
1.52038e-06
1.52038e-06
1.5233e-06
1.52482e-06
1.52313e-06
1.52038e-06
1.52038e-06
1.52038e-06
1.52038e-06
1.52038e-06
1.52038e-06
1.52038e-06
1.52038e-06
1.52038e-06
1.52322e-06
1.52474e-06
1.52317e-06
1.52038e-06
1.52038e-06
1.52038e-06
1.52038e-06
1.52038e-06
1.52038e-06
1.52038e-06
1.52038e-06
1.52038e-06
1.52326e-06
1.52474e-06
1.52458e-06
1.52285e-06
1.52038e-06
1.52038e-06
1.52038e-06
1.52038e-06
1.52038e-06
1.52038e-06
1.52038e-06
1.52286e-06
1.52339e-06
1.52486e-06
1.52476e-06
1.52334e-06
1.52279e-06
1.52038e-06
1.52038e-06
1.52038e-06
1.52038e-06
1.52038e-06
1.52281e-06
1.52322e-06
1.52354e-06
1.52465e-06
1.52332e-06
1.52281e-06
1.52038e-06
1.52038e-06
1.52038e-06
1.52286e-06
1.52322e-06
1.52351e-06
1.52488e-06
1.52466e-06
1.52343e-06
1.5233e-06
1.52321e-06
1.52326e-06
1.52339e-06
1.52354e-06
1.52488e-06
1.52482e-06
1.52482e-06
1.52474e-06
1.52474e-06
1.52486e-06
1.51024e-06
1.5087e-06
1.50862e-06
1.50866e-06
1.51007e-06
1.51024e-06
1.51033e-06
1.50892e-06
1.50828e-06
1.50587e-06
1.50587e-06
1.50587e-06
1.50833e-06
1.50883e-06
1.51014e-06
1.50892e-06
1.50825e-06
1.50587e-06
1.50587e-06
1.50587e-06
1.50587e-06
1.50587e-06
1.50828e-06
1.50881e-06
1.51015e-06
1.51024e-06
1.50828e-06
1.50587e-06
1.50587e-06
1.50587e-06
1.50587e-06
1.50587e-06
1.50587e-06
1.50587e-06
1.5083e-06
1.50891e-06
1.51031e-06
1.5087e-06
1.50587e-06
1.50587e-06
1.50587e-06
1.50587e-06
1.50587e-06
1.50587e-06
1.50587e-06
1.50587e-06
1.50587e-06
1.50879e-06
1.5103e-06
1.50862e-06
1.50587e-06
1.50587e-06
1.50587e-06
1.50587e-06
1.50587e-06
1.50587e-06
1.50587e-06
1.50587e-06
1.50587e-06
1.5087e-06
1.51023e-06
1.50866e-06
1.50587e-06
1.50587e-06
1.50587e-06
1.50587e-06
1.50587e-06
1.50587e-06
1.50587e-06
1.50587e-06
1.50587e-06
1.50874e-06
1.51023e-06
1.51007e-06
1.50833e-06
1.50587e-06
1.50587e-06
1.50587e-06
1.50587e-06
1.50587e-06
1.50587e-06
1.50587e-06
1.50834e-06
1.50887e-06
1.51034e-06
1.51024e-06
1.50883e-06
1.50828e-06
1.50587e-06
1.50587e-06
1.50587e-06
1.50587e-06
1.50587e-06
1.5083e-06
1.5087e-06
1.50903e-06
1.51014e-06
1.50881e-06
1.5083e-06
1.50587e-06
1.50587e-06
1.50587e-06
1.50834e-06
1.5087e-06
1.50899e-06
1.51037e-06
1.51015e-06
1.50891e-06
1.50879e-06
1.5087e-06
1.50874e-06
1.50887e-06
1.50903e-06
1.51037e-06
1.51031e-06
1.5103e-06
1.51023e-06
1.51023e-06
1.51034e-06
1.49572e-06
1.49419e-06
1.4941e-06
1.49414e-06
1.49555e-06
1.49573e-06
1.49582e-06
1.49441e-06
1.49376e-06
1.49135e-06
1.49135e-06
1.49135e-06
1.49382e-06
1.49431e-06
1.49562e-06
1.49441e-06
1.49373e-06
1.49135e-06
1.49135e-06
1.49135e-06
1.49135e-06
1.49135e-06
1.49376e-06
1.49429e-06
1.49563e-06
1.49572e-06
1.49376e-06
1.49135e-06
1.49135e-06
1.49135e-06
1.49135e-06
1.49135e-06
1.49135e-06
1.49135e-06
1.49378e-06
1.4944e-06
1.49579e-06
1.49419e-06
1.49135e-06
1.49135e-06
1.49135e-06
1.49135e-06
1.49135e-06
1.49135e-06
1.49135e-06
1.49135e-06
1.49135e-06
1.49427e-06
1.49579e-06
1.4941e-06
1.49135e-06
1.49135e-06
1.49135e-06
1.49135e-06
1.49135e-06
1.49135e-06
1.49135e-06
1.49135e-06
1.49135e-06
1.49419e-06
1.49571e-06
1.49414e-06
1.49135e-06
1.49135e-06
1.49135e-06
1.49135e-06
1.49135e-06
1.49135e-06
1.49135e-06
1.49135e-06
1.49135e-06
1.49423e-06
1.49571e-06
1.49555e-06
1.49382e-06
1.49135e-06
1.49135e-06
1.49135e-06
1.49135e-06
1.49135e-06
1.49135e-06
1.49135e-06
1.49383e-06
1.49436e-06
1.49583e-06
1.49573e-06
1.49431e-06
1.49376e-06
1.49135e-06
1.49135e-06
1.49135e-06
1.49135e-06
1.49135e-06
1.49378e-06
1.49419e-06
1.49451e-06
1.49562e-06
1.49429e-06
1.49378e-06
1.49135e-06
1.49135e-06
1.49135e-06
1.49383e-06
1.49419e-06
1.49448e-06
1.49585e-06
1.49563e-06
1.4944e-06
1.49427e-06
1.49418e-06
1.49423e-06
1.49436e-06
1.49451e-06
1.49585e-06
1.49579e-06
1.49579e-06
1.49571e-06
1.49571e-06
1.49583e-06
1.48121e-06
1.47967e-06
1.47959e-06
1.47963e-06
1.48104e-06
1.48121e-06
1.4813e-06
1.47989e-06
1.47925e-06
1.47684e-06
1.47684e-06
1.47684e-06
1.4793e-06
1.4798e-06
1.48111e-06
1.47989e-06
1.47922e-06
1.47684e-06
1.47684e-06
1.47684e-06
1.47684e-06
1.47684e-06
1.47925e-06
1.47978e-06
1.48112e-06
1.48121e-06
1.47925e-06
1.47684e-06
1.47684e-06
1.47684e-06
1.47684e-06
1.47684e-06
1.47684e-06
1.47684e-06
1.47927e-06
1.47988e-06
1.48128e-06
1.47967e-06
1.47684e-06
1.47684e-06
1.47684e-06
1.47684e-06
1.47684e-06
1.47684e-06
1.47684e-06
1.47684e-06
1.47684e-06
1.47976e-06
1.48127e-06
1.47959e-06
1.47684e-06
1.47684e-06
1.47684e-06
1.47684e-06
1.47684e-06
1.47684e-06
1.47684e-06
1.47684e-06
1.47684e-06
1.47967e-06
1.4812e-06
1.47963e-06
1.47684e-06
1.47684e-06
1.47684e-06
1.47684e-06
1.47684e-06
1.47684e-06
1.47684e-06
1.47684e-06
1.47684e-06
1.47971e-06
1.4812e-06
1.48104e-06
1.4793e-06
1.47684e-06
1.47684e-06
1.47684e-06
1.47684e-06
1.47684e-06
1.47684e-06
1.47684e-06
1.47931e-06
1.47984e-06
1.48131e-06
1.48121e-06
1.4798e-06
1.47925e-06
1.47684e-06
1.47684e-06
1.47684e-06
1.47684e-06
1.47684e-06
1.47927e-06
1.47967e-06
1.48e-06
1.48111e-06
1.47978e-06
1.47927e-06
1.47684e-06
1.47684e-06
1.47684e-06
1.47931e-06
1.47967e-06
1.47996e-06
1.48134e-06
1.48112e-06
1.47988e-06
1.47976e-06
1.47967e-06
1.47971e-06
1.47984e-06
1.48e-06
1.48134e-06
1.48128e-06
1.48127e-06
1.4812e-06
1.4812e-06
1.48131e-06
1.46669e-06
1.46516e-06
1.46507e-06
1.46511e-06
1.46652e-06
1.4667e-06
1.46679e-06
1.46538e-06
1.46473e-06
1.46232e-06
1.46232e-06
1.46232e-06
1.46479e-06
1.46528e-06
1.46659e-06
1.46538e-06
1.4647e-06
1.46232e-06
1.46232e-06
1.46232e-06
1.46232e-06
1.46232e-06
1.46473e-06
1.46526e-06
1.4666e-06
1.46669e-06
1.46473e-06
1.46232e-06
1.46232e-06
1.46232e-06
1.46232e-06
1.46232e-06
1.46232e-06
1.46232e-06
1.46475e-06
1.46537e-06
1.46676e-06
1.46516e-06
1.46232e-06
1.46232e-06
1.46232e-06
1.46232e-06
1.46232e-06
1.46232e-06
1.46232e-06
1.46232e-06
1.46232e-06
1.46524e-06
1.46676e-06
1.46507e-06
1.46232e-06
1.46232e-06
1.46232e-06
1.46232e-06
1.46232e-06
1.46232e-06
1.46232e-06
1.46232e-06
1.46232e-06
1.46516e-06
1.46668e-06
1.46511e-06
1.46232e-06
1.46232e-06
1.46232e-06
1.46232e-06
1.46232e-06
1.46232e-06
1.46232e-06
1.46232e-06
1.46232e-06
1.4652e-06
1.46668e-06
1.46652e-06
1.46479e-06
1.46232e-06
1.46232e-06
1.46232e-06
1.46232e-06
1.46232e-06
1.46232e-06
1.46232e-06
1.4648e-06
1.46533e-06
1.4668e-06
1.4667e-06
1.46528e-06
1.46473e-06
1.46232e-06
1.46232e-06
1.46232e-06
1.46232e-06
1.46232e-06
1.46475e-06
1.46516e-06
1.46548e-06
1.46659e-06
1.46526e-06
1.46475e-06
1.46232e-06
1.46232e-06
1.46232e-06
1.4648e-06
1.46516e-06
1.46545e-06
1.46682e-06
1.4666e-06
1.46537e-06
1.46524e-06
1.46515e-06
1.4652e-06
1.46533e-06
1.46548e-06
1.46682e-06
1.46676e-06
1.46676e-06
1.46668e-06
1.46668e-06
1.4668e-06
1.45218e-06
1.45064e-06
1.45056e-06
1.4506e-06
1.45201e-06
1.45218e-06
1.45227e-06
1.45086e-06
1.45022e-06
1.44781e-06
1.44781e-06
1.44781e-06
1.45027e-06
1.45077e-06
1.45208e-06
1.45086e-06
1.45019e-06
1.44781e-06
1.44781e-06
1.44781e-06
1.44781e-06
1.44781e-06
1.45021e-06
1.45075e-06
1.45209e-06
1.45218e-06
1.45022e-06
1.44781e-06
1.44781e-06
1.44781e-06
1.44781e-06
1.44781e-06
1.44781e-06
1.44781e-06
1.45024e-06
1.45085e-06
1.45224e-06
1.45064e-06
1.44781e-06
1.44781e-06
1.44781e-06
1.44781e-06
1.44781e-06
1.44781e-06
1.44781e-06
1.44781e-06
1.44781e-06
1.45073e-06
1.45224e-06
1.45056e-06
1.44781e-06
1.44781e-06
1.44781e-06
1.44781e-06
1.44781e-06
1.44781e-06
1.44781e-06
1.44781e-06
1.44781e-06
1.45064e-06
1.45217e-06
1.4506e-06
1.44781e-06
1.44781e-06
1.44781e-06
1.44781e-06
1.44781e-06
1.44781e-06
1.44781e-06
1.44781e-06
1.44781e-06
1.45068e-06
1.45217e-06
1.45201e-06
1.45027e-06
1.44781e-06
1.44781e-06
1.44781e-06
1.44781e-06
1.44781e-06
1.44781e-06
1.44781e-06
1.45028e-06
1.45081e-06
1.45228e-06
1.45218e-06
1.45077e-06
1.45021e-06
1.44781e-06
1.44781e-06
1.44781e-06
1.44781e-06
1.44781e-06
1.45024e-06
1.45064e-06
1.45097e-06
1.45208e-06
1.45075e-06
1.45024e-06
1.44781e-06
1.44781e-06
1.44781e-06
1.45028e-06
1.45064e-06
1.45093e-06
1.45231e-06
1.45209e-06
1.45085e-06
1.45073e-06
1.45064e-06
1.45068e-06
1.45081e-06
1.45097e-06
1.45231e-06
1.45225e-06
1.45224e-06
1.45217e-06
1.45217e-06
1.45228e-06
1.43766e-06
1.43613e-06
1.43604e-06
1.43608e-06
1.43749e-06
1.43767e-06
1.43776e-06
1.43635e-06
1.4357e-06
1.43329e-06
1.43329e-06
1.43329e-06
1.43576e-06
1.43625e-06
1.43756e-06
1.43635e-06
1.43567e-06
1.43329e-06
1.43329e-06
1.43329e-06
1.43329e-06
1.43329e-06
1.4357e-06
1.43623e-06
1.43757e-06
1.43766e-06
1.4357e-06
1.43329e-06
1.43329e-06
1.43329e-06
1.43329e-06
1.43329e-06
1.43329e-06
1.43329e-06
1.43572e-06
1.43634e-06
1.43773e-06
1.43613e-06
1.43329e-06
1.43329e-06
1.43329e-06
1.43329e-06
1.43329e-06
1.43329e-06
1.43329e-06
1.43329e-06
1.43329e-06
1.43621e-06
1.43773e-06
1.43604e-06
1.43329e-06
1.43329e-06
1.43329e-06
1.43329e-06
1.43329e-06
1.43329e-06
1.43329e-06
1.43329e-06
1.43329e-06
1.43613e-06
1.43765e-06
1.43608e-06
1.43329e-06
1.43329e-06
1.43329e-06
1.43329e-06
1.43329e-06
1.43329e-06
1.43329e-06
1.43329e-06
1.43329e-06
1.43617e-06