/*--------------------------------*- C++ -*----------------------------------*\
| =========                 |                                                 |
| \\      /  F ield         | OpenFOAM: The Open Source CFD Toolbox           |
|  \\    /   O peration     | Version:  v2012                                 |
|   \\  /    A nd           | Website:  www.openfoam.com                      |
|    \\/     M anipulation  |                                                 |
\*---------------------------------------------------------------------------*/
FoamFile
{
    version     2.0;
    format      ascii;
    class       volScalarField;
    location    "43";
    object      p;
}
// * * * * * * * * * * * * * * * * * * * * * * * * * * * * * * * * * * * * * //

dimensions      [0 2 -2 0 0 0 0];


internalField   nonuniform List<scalar> 
292667
(
1.26212e-06
1.2524e-06
1.2516e-06
1.25168e-06
1.25278e-06
1.26304e-06
1.25261e-06
1.2498e-06
1.24816e-06
1.24749e-06
1.24758e-06
1.24846e-06
1.25035e-06
1.25343e-06
1.25261e-06
1.24897e-06
1.24672e-06
1.24548e-06
1.24496e-06
1.24503e-06
1.2457e-06
1.24715e-06
1.2497e-06
1.25367e-06
1.26212e-06
1.2498e-06
1.24672e-06
1.24489e-06
1.24388e-06
1.24344e-06
1.2435e-06
1.24406e-06
1.24525e-06
1.24732e-06
1.25079e-06
1.26186e-06
1.2524e-06
1.24816e-06
1.24548e-06
1.24388e-06
1.24297e-06
1.24257e-06
1.24263e-06
1.24314e-06
1.2442e-06
1.24602e-06
1.24906e-06
1.25624e-06
1.2516e-06
1.24749e-06
1.24496e-06
1.24344e-06
1.24257e-06
1.24219e-06
1.24225e-06
1.24274e-06
1.24374e-06
1.24547e-06
1.24836e-06
1.25449e-06
1.25168e-06
1.24758e-06
1.24503e-06
1.2435e-06
1.24263e-06
1.24225e-06
1.2423e-06
1.24279e-06
1.24381e-06
1.24555e-06
1.24846e-06
1.25482e-06
1.25278e-06
1.24845e-06
1.2457e-06
1.24406e-06
1.24314e-06
1.24274e-06
1.24279e-06
1.24332e-06
1.2444e-06
1.24627e-06
1.2494e-06
1.25657e-06
1.26304e-06
1.25035e-06
1.24715e-06
1.24525e-06
1.2442e-06
1.24374e-06
1.24381e-06
1.2444e-06
1.24563e-06
1.2478e-06
1.25139e-06
1.2618e-06
1.25343e-06
1.2497e-06
1.24732e-06
1.24602e-06
1.24547e-06
1.24555e-06
1.24627e-06
1.2478e-06
1.2505e-06
1.25717e-06
1.25367e-06
1.25079e-06
1.24906e-06
1.24836e-06
1.24846e-06
1.2494e-06
1.25139e-06
1.25717e-06
1.26186e-06
1.25624e-06
1.25449e-06
1.25482e-06
1.25657e-06
1.2618e-06
1.23442e-06
1.23346e-06
1.23343e-06
1.23346e-06
1.23436e-06
1.23428e-06
1.23448e-06
1.23372e-06
1.23331e-06
1.2318e-06
1.23178e-06
1.2318e-06
1.23347e-06
1.23374e-06
1.23447e-06
1.23372e-06
1.23332e-06
1.23185e-06
1.23178e-06
1.23184e-06
1.23178e-06
1.23185e-06
1.23344e-06
1.23371e-06
1.23444e-06
1.23442e-06
1.23331e-06
1.23185e-06
1.23178e-06
1.23182e-06
1.23181e-06
1.23182e-06
1.23178e-06
1.23185e-06
1.23343e-06
1.23373e-06
1.23452e-06
1.23346e-06
1.2318e-06
1.23178e-06
1.23182e-06
1.23179e-06
1.23179e-06
1.23179e-06
1.23182e-06
1.23178e-06
1.2318e-06
1.23386e-06
1.23463e-06
1.23343e-06
1.23178e-06
1.23184e-06
1.23181e-06
1.23179e-06
1.23178e-06
1.23179e-06
1.23181e-06
1.23184e-06
1.23178e-06
1.23386e-06
1.23451e-06
1.23346e-06
1.2318e-06
1.23178e-06
1.23182e-06
1.23179e-06
1.23179e-06
1.23179e-06
1.23182e-06
1.23178e-06
1.2318e-06
1.23387e-06
1.23454e-06
1.23436e-06
1.23347e-06
1.23185e-06
1.23178e-06
1.23182e-06
1.23181e-06
1.23182e-06
1.23178e-06
1.23185e-06
1.23359e-06
1.23378e-06
1.2346e-06
1.23428e-06
1.23374e-06
1.23344e-06
1.23185e-06
1.23178e-06
1.23184e-06
1.23178e-06
1.23185e-06
1.23355e-06
1.23374e-06
1.23378e-06
1.23447e-06
1.23371e-06
1.23343e-06
1.2318e-06
1.23178e-06
1.2318e-06
1.23359e-06
1.23374e-06
1.23384e-06
1.23459e-06
1.23444e-06
1.23373e-06
1.23386e-06
1.23386e-06
1.23387e-06
1.23378e-06
1.23378e-06
1.23459e-06
1.23452e-06
1.23463e-06
1.23451e-06
1.23454e-06
1.2346e-06
1.2239e-06
1.22296e-06
1.22289e-06
1.22294e-06
1.22387e-06
1.22393e-06
1.22394e-06
1.22311e-06
1.22264e-06
1.22116e-06
1.22115e-06
1.22116e-06
1.22279e-06
1.22312e-06
1.2239e-06
1.22311e-06
1.22263e-06
1.22121e-06
1.22121e-06
1.22125e-06
1.22121e-06
1.22121e-06
1.22279e-06
1.22312e-06
1.2239e-06
1.2239e-06
1.22264e-06
1.22121e-06
1.22122e-06
1.22128e-06
1.22128e-06
1.22128e-06
1.22122e-06
1.22121e-06
1.2228e-06
1.22317e-06
1.22396e-06
1.22296e-06
1.22116e-06
1.22121e-06
1.22128e-06
1.22129e-06
1.22131e-06
1.22129e-06
1.22128e-06
1.22121e-06
1.22116e-06
1.22321e-06
1.22408e-06
1.22289e-06
1.22115e-06
1.22125e-06
1.22128e-06
1.22131e-06
1.22132e-06
1.22131e-06
1.22128e-06
1.22125e-06
1.22115e-06
1.2232e-06
1.22408e-06
1.22294e-06
1.22116e-06
1.22121e-06
1.22128e-06
1.22129e-06
1.22131e-06
1.22129e-06
1.22128e-06
1.22121e-06
1.22116e-06
1.2232e-06
1.22408e-06
1.22387e-06
1.22279e-06
1.22121e-06
1.22122e-06
1.22128e-06
1.22128e-06
1.22128e-06
1.22122e-06
1.22121e-06
1.22298e-06
1.2232e-06
1.22408e-06
1.22393e-06
1.22312e-06
1.22279e-06
1.22121e-06
1.22121e-06
1.22125e-06
1.22121e-06
1.22121e-06
1.22295e-06
1.22314e-06
1.22325e-06
1.2239e-06
1.22312e-06
1.2228e-06
1.22116e-06
1.22115e-06
1.22116e-06
1.22298e-06
1.22314e-06
1.22323e-06
1.22406e-06
1.2239e-06
1.22317e-06
1.22321e-06
1.2232e-06
1.2232e-06
1.2232e-06
1.22325e-06
1.22406e-06
1.22396e-06
1.22408e-06
1.22408e-06
1.22408e-06
1.22408e-06
1.21345e-06
1.21249e-06
1.21242e-06
1.21247e-06
1.21341e-06
1.21348e-06
1.21348e-06
1.21263e-06
1.21214e-06
1.21064e-06
1.21064e-06
1.21064e-06
1.21228e-06
1.21263e-06
1.21344e-06
1.21263e-06
1.21211e-06
1.21067e-06
1.21068e-06
1.2107e-06
1.21068e-06
1.21067e-06
1.21227e-06
1.21263e-06
1.21344e-06
1.21345e-06
1.21214e-06
1.21067e-06
1.21069e-06
1.21073e-06
1.21073e-06
1.21073e-06
1.21069e-06
1.21067e-06
1.21229e-06
1.2127e-06
1.2135e-06
1.21249e-06
1.21064e-06
1.21068e-06
1.21073e-06
1.21074e-06
1.21076e-06
1.21074e-06
1.21073e-06
1.21068e-06
1.21064e-06
1.21272e-06
1.21362e-06
1.21242e-06
1.21064e-06
1.2107e-06
1.21073e-06
1.21076e-06
1.21077e-06
1.21076e-06
1.21073e-06
1.2107e-06
1.21064e-06
1.21271e-06
1.21361e-06
1.21247e-06
1.21064e-06
1.21068e-06
1.21073e-06
1.21075e-06
1.21076e-06
1.21075e-06
1.21073e-06
1.21068e-06
1.21064e-06
1.21272e-06
1.21362e-06
1.21341e-06
1.21228e-06
1.21067e-06
1.21069e-06
1.21073e-06
1.21073e-06
1.21073e-06
1.21069e-06
1.21067e-06
1.21248e-06
1.21273e-06
1.21362e-06
1.21348e-06
1.21263e-06
1.21227e-06
1.21067e-06
1.21068e-06
1.2107e-06
1.21068e-06
1.21067e-06
1.21245e-06
1.21265e-06
1.21279e-06
1.21344e-06
1.21263e-06
1.21229e-06
1.21064e-06
1.21064e-06
1.21064e-06
1.21248e-06
1.21265e-06
1.21277e-06
1.21361e-06
1.21344e-06
1.2127e-06
1.21272e-06
1.21271e-06
1.21272e-06
1.21273e-06
1.21279e-06
1.21361e-06
1.2135e-06
1.21362e-06
1.21361e-06
1.21362e-06
1.21362e-06
1.20298e-06
1.20202e-06
1.20195e-06
1.202e-06
1.20295e-06
1.20301e-06
1.20302e-06
1.20216e-06
1.20166e-06
1.20015e-06
1.20015e-06
1.20015e-06
1.2018e-06
1.20216e-06
1.20298e-06
1.20216e-06
1.20163e-06
1.20016e-06
1.20017e-06
1.20018e-06
1.20017e-06
1.20016e-06
1.20178e-06
1.20215e-06
1.20298e-06
1.20298e-06
1.20166e-06
1.20016e-06
1.20018e-06
1.2002e-06
1.20021e-06
1.2002e-06
1.20018e-06
1.20016e-06
1.20181e-06
1.20223e-06
1.20304e-06
1.20202e-06
1.20015e-06
1.20017e-06
1.2002e-06
1.20022e-06
1.20023e-06
1.20022e-06
1.2002e-06
1.20017e-06
1.20015e-06
1.20225e-06
1.20315e-06
1.20195e-06
1.20015e-06
1.20018e-06
1.20021e-06
1.20023e-06
1.20023e-06
1.20023e-06
1.20021e-06
1.20018e-06
1.20015e-06
1.20224e-06
1.20315e-06
1.202e-06
1.20015e-06
1.20017e-06
1.2002e-06
1.20022e-06
1.20023e-06
1.20022e-06
1.2002e-06
1.20017e-06
1.20015e-06
1.20224e-06
1.20315e-06
1.20295e-06
1.2018e-06
1.20016e-06
1.20018e-06
1.2002e-06
1.20021e-06
1.2002e-06
1.20018e-06
1.20016e-06
1.202e-06
1.20227e-06
1.20316e-06
1.20301e-06
1.20216e-06
1.20178e-06
1.20016e-06
1.20017e-06
1.20018e-06
1.20017e-06
1.20016e-06
1.20197e-06
1.20218e-06
1.20233e-06
1.20298e-06
1.20215e-06
1.20181e-06
1.20015e-06
1.20015e-06
1.20015e-06
1.202e-06
1.20218e-06
1.20231e-06
1.20315e-06
1.20298e-06
1.20223e-06
1.20225e-06
1.20224e-06
1.20224e-06
1.20227e-06
1.20233e-06
1.20315e-06
1.20304e-06
1.20315e-06
1.20315e-06
1.20315e-06
1.20316e-06
1.19252e-06
1.19155e-06
1.19148e-06
1.19153e-06
1.19248e-06
1.19255e-06
1.19256e-06
1.19169e-06
1.19119e-06
1.18968e-06
1.18968e-06
1.18968e-06
1.19133e-06
1.19169e-06
1.19251e-06
1.19169e-06
1.19116e-06
1.18968e-06
1.18969e-06
1.18969e-06
1.18969e-06
1.18968e-06
1.19131e-06
1.19169e-06
1.19252e-06
1.19252e-06
1.19119e-06
1.18968e-06
1.18969e-06
1.1897e-06
1.18971e-06
1.1897e-06
1.18969e-06
1.18968e-06
1.19133e-06
1.19177e-06
1.19257e-06
1.19155e-06
1.18968e-06
1.18969e-06
1.18971e-06
1.18971e-06
1.18972e-06
1.18971e-06
1.18971e-06
1.18969e-06
1.18968e-06
1.19179e-06
1.19269e-06
1.19148e-06
1.18968e-06
1.18969e-06
1.18971e-06
1.18972e-06
1.18972e-06
1.18972e-06
1.18971e-06
1.18969e-06
1.18968e-06
1.19177e-06
1.19269e-06
1.19153e-06
1.18968e-06
1.18969e-06
1.1897e-06
1.18971e-06
1.18972e-06
1.18971e-06
1.1897e-06
1.18969e-06
1.18968e-06
1.19178e-06
1.19269e-06
1.19248e-06
1.19133e-06
1.18968e-06
1.18969e-06
1.18971e-06
1.18971e-06
1.18971e-06
1.18969e-06
1.18968e-06
1.19153e-06
1.1918e-06
1.1927e-06
1.19255e-06
1.19169e-06
1.19131e-06
1.18968e-06
1.18969e-06
1.18969e-06
1.18969e-06
1.18968e-06
1.1915e-06
1.19171e-06
1.19187e-06
1.19251e-06
1.19169e-06
1.19133e-06
1.18968e-06
1.18968e-06
1.18968e-06
1.19153e-06
1.19171e-06
1.19184e-06
1.19268e-06
1.19252e-06
1.19177e-06
1.19179e-06
1.19177e-06
1.19178e-06
1.1918e-06
1.19187e-06
1.19268e-06
1.19257e-06
1.19269e-06
1.19269e-06
1.19269e-06
1.1927e-06
1.18205e-06
1.18109e-06
1.18101e-06
1.18106e-06
1.18202e-06
1.18208e-06
1.18209e-06
1.18122e-06
1.18072e-06
1.1792e-06
1.1792e-06
1.1792e-06
1.18086e-06
1.18122e-06
1.18205e-06
1.18122e-06
1.18069e-06
1.17921e-06
1.17921e-06
1.17921e-06
1.17921e-06
1.17921e-06
1.18084e-06
1.18122e-06
1.18205e-06
1.18205e-06
1.18072e-06
1.17921e-06
1.17921e-06
1.17922e-06
1.17922e-06
1.17922e-06
1.17921e-06
1.17921e-06
1.18086e-06
1.1813e-06
1.18211e-06
1.18109e-06
1.1792e-06
1.17921e-06
1.17922e-06
1.17923e-06
1.17923e-06
1.17923e-06
1.17922e-06
1.17921e-06
1.1792e-06
1.18132e-06
1.18222e-06
1.18101e-06
1.1792e-06
1.17921e-06
1.17922e-06
1.17923e-06
1.17923e-06
1.17923e-06
1.17922e-06
1.17921e-06
1.1792e-06
1.1813e-06
1.18222e-06
1.18106e-06
1.1792e-06
1.17921e-06
1.17922e-06
1.17923e-06
1.17923e-06
1.17923e-06
1.17922e-06
1.17921e-06
1.1792e-06
1.18131e-06
1.18222e-06
1.18202e-06
1.18086e-06
1.17921e-06
1.17921e-06
1.17922e-06
1.17922e-06
1.17922e-06
1.17921e-06
1.17921e-06
1.18106e-06
1.18133e-06
1.18223e-06
1.18208e-06
1.18122e-06
1.18084e-06
1.17921e-06
1.17921e-06
1.17921e-06
1.17921e-06
1.17921e-06
1.18103e-06
1.18124e-06
1.1814e-06
1.18205e-06
1.18122e-06
1.18086e-06
1.1792e-06
1.1792e-06
1.1792e-06
1.18106e-06
1.18124e-06
1.18137e-06
1.18222e-06
1.18205e-06
1.1813e-06
1.18132e-06
1.1813e-06
1.18131e-06
1.18133e-06
1.1814e-06
1.18222e-06
1.18211e-06
1.18222e-06
1.18222e-06
1.18222e-06
1.18223e-06
1.17158e-06
1.17062e-06
1.17055e-06
1.1706e-06
1.17155e-06
1.17162e-06
1.17162e-06
1.17075e-06
1.17025e-06
1.16873e-06
1.16874e-06
1.16873e-06
1.1704e-06
1.17075e-06
1.17158e-06
1.17075e-06
1.17022e-06
1.16874e-06
1.16874e-06
1.16874e-06
1.16874e-06
1.16874e-06
1.17037e-06
1.17075e-06
1.17159e-06
1.17158e-06
1.17025e-06
1.16874e-06
1.16874e-06
1.16874e-06
1.16874e-06
1.16874e-06
1.16874e-06
1.16874e-06
1.1704e-06
1.17083e-06
1.17164e-06
1.17062e-06
1.16873e-06
1.16874e-06
1.16874e-06
1.16875e-06
1.16875e-06
1.16875e-06
1.16874e-06
1.16874e-06
1.16873e-06
1.17085e-06
1.17176e-06
1.17055e-06
1.16874e-06
1.16874e-06
1.16874e-06
1.16875e-06
1.16875e-06
1.16875e-06
1.16874e-06
1.16874e-06
1.16874e-06
1.17083e-06
1.17175e-06
1.1706e-06
1.16873e-06
1.16874e-06
1.16874e-06
1.16875e-06
1.16875e-06
1.16875e-06
1.16874e-06
1.16874e-06
1.16873e-06
1.17084e-06
1.17175e-06
1.17155e-06
1.1704e-06
1.16874e-06
1.16874e-06
1.16874e-06
1.16874e-06
1.16874e-06
1.16874e-06
1.16874e-06
1.17059e-06
1.17087e-06
1.17176e-06
1.17162e-06
1.17075e-06
1.17037e-06
1.16874e-06
1.16874e-06
1.16874e-06
1.16874e-06
1.16874e-06
1.17056e-06
1.17078e-06
1.17093e-06
1.17158e-06
1.17075e-06
1.1704e-06
1.16873e-06
1.16874e-06
1.16873e-06
1.17059e-06
1.17078e-06
1.17091e-06
1.17175e-06
1.17159e-06
1.17083e-06
1.17085e-06
1.17083e-06
1.17084e-06
1.17087e-06
1.17093e-06
1.17175e-06
1.17164e-06
1.17176e-06
1.17175e-06
1.17175e-06
1.17176e-06
1.16112e-06
1.16015e-06
1.16008e-06
1.16013e-06
1.16108e-06
1.16115e-06
1.16116e-06
1.16029e-06
1.15979e-06
1.15827e-06
1.15827e-06
1.15827e-06
1.15993e-06
1.16029e-06
1.16111e-06
1.16029e-06
1.15975e-06
1.15827e-06
1.15827e-06
1.15827e-06
1.15827e-06
1.15827e-06
1.1599e-06
1.16028e-06
1.16112e-06
1.16112e-06
1.15979e-06
1.15827e-06
1.15827e-06
1.15827e-06
1.15827e-06
1.15827e-06
1.15827e-06
1.15827e-06
1.15993e-06
1.16037e-06
1.16117e-06
1.16015e-06
1.15827e-06
1.15827e-06
1.15827e-06
1.15827e-06
1.15827e-06
1.15827e-06
1.15827e-06
1.15827e-06
1.15827e-06
1.16038e-06
1.16129e-06
1.16008e-06
1.15827e-06
1.15827e-06
1.15827e-06
1.15827e-06
1.15827e-06
1.15827e-06
1.15827e-06
1.15827e-06
1.15827e-06
1.16036e-06
1.16128e-06
1.16013e-06
1.15827e-06
1.15827e-06
1.15827e-06
1.15827e-06
1.15827e-06
1.15827e-06
1.15827e-06
1.15827e-06
1.15827e-06
1.16037e-06
1.16129e-06
1.16108e-06
1.15993e-06
1.15827e-06
1.15827e-06
1.15827e-06
1.15827e-06
1.15827e-06
1.15827e-06
1.15827e-06
1.16012e-06
1.1604e-06
1.16129e-06
1.16115e-06
1.16029e-06
1.1599e-06
1.15827e-06
1.15827e-06
1.15827e-06
1.15827e-06
1.15827e-06
1.16009e-06
1.16031e-06
1.16047e-06
1.16111e-06
1.16028e-06
1.15993e-06
1.15827e-06
1.15827e-06
1.15827e-06
1.16012e-06
1.16031e-06
1.16044e-06
1.16128e-06
1.16112e-06
1.16037e-06
1.16038e-06
1.16036e-06
1.16037e-06
1.1604e-06
1.16047e-06
1.16128e-06
1.16117e-06
1.16129e-06
1.16128e-06
1.16129e-06
1.16129e-06
1.15065e-06
1.14968e-06
1.14961e-06
1.14966e-06
1.15061e-06
1.15068e-06
1.15069e-06
1.14982e-06
1.14932e-06
1.1478e-06
1.1478e-06
1.1478e-06
1.14946e-06
1.14982e-06
1.15065e-06
1.14982e-06
1.14928e-06
1.1478e-06
1.1478e-06
1.1478e-06
1.1478e-06
1.1478e-06
1.14944e-06
1.14982e-06
1.15065e-06
1.15065e-06
1.14932e-06
1.1478e-06
1.1478e-06
1.1478e-06
1.1478e-06
1.1478e-06
1.1478e-06
1.1478e-06
1.14946e-06
1.1499e-06
1.15071e-06
1.14968e-06
1.1478e-06
1.1478e-06
1.1478e-06
1.1478e-06
1.1478e-06
1.1478e-06
1.1478e-06
1.1478e-06
1.1478e-06
1.14992e-06
1.15082e-06
1.14961e-06
1.1478e-06
1.1478e-06
1.1478e-06
1.1478e-06
1.1478e-06
1.1478e-06
1.1478e-06
1.1478e-06
1.1478e-06
1.1499e-06
1.15082e-06
1.14966e-06
1.1478e-06
1.1478e-06
1.1478e-06
1.1478e-06
1.1478e-06
1.1478e-06
1.1478e-06
1.1478e-06
1.1478e-06
1.1499e-06
1.15082e-06
1.15061e-06
1.14946e-06
1.1478e-06
1.1478e-06
1.1478e-06
1.1478e-06
1.1478e-06
1.1478e-06
1.1478e-06
1.14966e-06
1.14993e-06
1.15083e-06
1.15068e-06
1.14982e-06
1.14944e-06
1.1478e-06
1.1478e-06
1.1478e-06
1.1478e-06
1.1478e-06
1.14962e-06
1.14984e-06
1.15e-06
1.15065e-06
1.14982e-06
1.14946e-06
1.1478e-06
1.1478e-06
1.1478e-06
1.14966e-06
1.14984e-06
1.14997e-06
1.15081e-06
1.15065e-06
1.1499e-06
1.14992e-06
1.1499e-06
1.1499e-06
1.14993e-06
1.15e-06
1.15081e-06
1.15071e-06
1.15082e-06
1.15082e-06
1.15082e-06
1.15083e-06
1.14018e-06
1.13922e-06
1.13914e-06
1.13919e-06
1.14015e-06
1.14021e-06
1.14022e-06
1.13935e-06
1.13885e-06
1.13733e-06
1.13733e-06
1.13733e-06
1.13899e-06
1.13935e-06
1.14018e-06
1.13935e-06
1.13882e-06
1.13733e-06
1.13733e-06
1.13733e-06
1.13733e-06
1.13733e-06
1.13897e-06
1.13935e-06
1.14018e-06
1.14018e-06
1.13885e-06
1.13733e-06
1.13733e-06
1.13733e-06
1.13733e-06
1.13733e-06
1.13733e-06
1.13733e-06
1.13899e-06
1.13943e-06
1.14024e-06
1.13922e-06
1.13733e-06
1.13733e-06
1.13733e-06
1.13733e-06
1.13733e-06
1.13733e-06
1.13733e-06
1.13733e-06
1.13733e-06
1.13945e-06
1.14035e-06
1.13914e-06
1.13733e-06
1.13733e-06
1.13733e-06
1.13733e-06
1.13733e-06
1.13733e-06
1.13733e-06
1.13733e-06
1.13733e-06
1.13943e-06
1.14035e-06
1.13919e-06
1.13733e-06
1.13733e-06
1.13733e-06
1.13733e-06
1.13733e-06
1.13733e-06
1.13733e-06
1.13733e-06
1.13733e-06
1.13944e-06
1.14035e-06
1.14015e-06
1.13899e-06
1.13733e-06
1.13733e-06
1.13733e-06
1.13733e-06
1.13733e-06
1.13733e-06
1.13733e-06
1.13919e-06
1.13946e-06
1.14036e-06
1.14021e-06
1.13935e-06
1.13897e-06
1.13733e-06
1.13733e-06
1.13733e-06
1.13733e-06
1.13733e-06
1.13915e-06
1.13937e-06
1.13953e-06
1.14018e-06
1.13935e-06
1.13899e-06
1.13733e-06
1.13733e-06
1.13733e-06
1.13919e-06
1.13937e-06
1.13951e-06
1.14035e-06
1.14018e-06
1.13943e-06
1.13945e-06
1.13943e-06
1.13944e-06
1.13946e-06
1.13953e-06
1.14035e-06
1.14024e-06
1.14035e-06
1.14035e-06
1.14035e-06
1.14036e-06
1.12971e-06
1.12875e-06
1.12868e-06
1.12873e-06
1.12968e-06
1.12975e-06
1.12975e-06
1.12888e-06
1.12838e-06
1.12686e-06
1.12686e-06
1.12686e-06
1.12853e-06
1.12888e-06
1.12971e-06
1.12888e-06
1.12835e-06
1.12686e-06
1.12686e-06
1.12686e-06
1.12686e-06
1.12686e-06
1.1285e-06
1.12888e-06
1.12972e-06
1.12971e-06
1.12838e-06
1.12686e-06
1.12686e-06
1.12686e-06
1.12686e-06
1.12686e-06
1.12686e-06
1.12686e-06
1.12853e-06
1.12896e-06
1.12977e-06
1.12875e-06
1.12686e-06
1.12686e-06
1.12686e-06
1.12686e-06
1.12686e-06
1.12686e-06
1.12686e-06
1.12686e-06
1.12686e-06
1.12898e-06
1.12989e-06
1.12868e-06
1.12686e-06
1.12686e-06
1.12686e-06
1.12686e-06
1.12686e-06
1.12686e-06
1.12686e-06
1.12686e-06
1.12686e-06
1.12896e-06
1.12988e-06
1.12873e-06
1.12686e-06
1.12686e-06
1.12686e-06
1.12686e-06
1.12686e-06
1.12686e-06
1.12686e-06
1.12686e-06
1.12686e-06
1.12897e-06
1.12988e-06
1.12968e-06
1.12853e-06
1.12686e-06
1.12686e-06
1.12686e-06
1.12686e-06
1.12686e-06
1.12686e-06
1.12686e-06
1.12872e-06
1.129e-06
1.12989e-06
1.12975e-06
1.12888e-06
1.1285e-06
1.12686e-06
1.12686e-06
1.12686e-06
1.12686e-06
1.12686e-06
1.12869e-06
1.12891e-06
1.12906e-06
1.12971e-06
1.12888e-06
1.12853e-06
1.12686e-06
1.12686e-06
1.12686e-06
1.12872e-06
1.12891e-06
1.12904e-06
1.12988e-06
1.12972e-06
1.12896e-06
1.12898e-06
1.12896e-06
1.12897e-06
1.129e-06
1.12906e-06
1.12988e-06
1.12977e-06
1.12989e-06
1.12988e-06
1.12988e-06
1.12989e-06
1.11925e-06
1.11828e-06
1.11821e-06
1.11826e-06
1.11921e-06
1.11928e-06
1.11929e-06
1.11842e-06
1.11791e-06
1.11639e-06
1.11639e-06
1.11639e-06
1.11806e-06
1.11842e-06
1.11924e-06
1.11842e-06
1.11788e-06
1.11639e-06
1.1164e-06
1.1164e-06
1.1164e-06
1.11639e-06
1.11803e-06
1.11841e-06
1.11925e-06
1.11925e-06
1.11791e-06
1.11639e-06
1.1164e-06
1.11639e-06
1.1164e-06
1.11639e-06
1.1164e-06
1.11639e-06
1.11806e-06
1.1185e-06
1.1193e-06
1.11828e-06
1.11639e-06
1.1164e-06
1.11639e-06
1.1164e-06
1.1164e-06
1.1164e-06
1.1164e-06
1.1164e-06
1.11639e-06
1.11851e-06
1.11942e-06
1.11821e-06
1.11639e-06
1.1164e-06
1.1164e-06
1.1164e-06
1.1164e-06
1.1164e-06
1.1164e-06
1.1164e-06
1.11639e-06
1.11849e-06
1.11941e-06
1.11826e-06
1.11639e-06
1.1164e-06
1.11639e-06
1.1164e-06
1.1164e-06
1.1164e-06
1.1164e-06
1.1164e-06
1.11639e-06
1.1185e-06
1.11942e-06
1.11921e-06
1.11806e-06
1.11639e-06
1.1164e-06
1.11639e-06
1.1164e-06
1.11639e-06
1.1164e-06
1.11639e-06
1.11825e-06
1.11853e-06
1.11942e-06
1.11928e-06
1.11842e-06
1.11803e-06
1.11639e-06
1.1164e-06
1.1164e-06
1.1164e-06
1.11639e-06
1.11822e-06
1.11844e-06
1.1186e-06
1.11924e-06
1.11841e-06
1.11806e-06
1.11639e-06
1.11639e-06
1.11639e-06
1.11825e-06
1.11844e-06
1.11857e-06
1.11941e-06
1.11925e-06
1.1185e-06
1.11851e-06
1.11849e-06
1.1185e-06
1.11853e-06
1.1186e-06
1.11941e-06
1.1193e-06
1.11942e-06
1.11941e-06
1.11942e-06
1.11942e-06
1.10878e-06
1.10781e-06
1.10774e-06
1.10779e-06
1.10874e-06
1.10881e-06
1.10882e-06
1.10795e-06
1.10745e-06
1.10593e-06
1.10593e-06
1.10593e-06
1.10759e-06
1.10795e-06
1.10878e-06
1.10795e-06
1.10741e-06
1.10593e-06
1.10593e-06
1.10593e-06
1.10593e-06
1.10593e-06
1.10757e-06
1.10794e-06
1.10878e-06
1.10878e-06
1.10745e-06
1.10593e-06
1.10593e-06
1.10593e-06
1.10593e-06
1.10593e-06
1.10593e-06
1.10593e-06
1.10759e-06
1.10803e-06
1.10884e-06
1.10781e-06
1.10593e-06
1.10593e-06
1.10593e-06
1.10593e-06
1.10593e-06
1.10593e-06
1.10593e-06
1.10593e-06
1.10593e-06
1.10805e-06
1.10895e-06
1.10774e-06
1.10593e-06
1.10593e-06
1.10593e-06
1.10593e-06
1.10593e-06
1.10593e-06
1.10593e-06
1.10593e-06
1.10593e-06
1.10802e-06
1.10895e-06
1.10779e-06
1.10593e-06
1.10593e-06
1.10593e-06
1.10593e-06
1.10593e-06
1.10593e-06
1.10593e-06
1.10593e-06
1.10593e-06
1.10803e-06
1.10895e-06
1.10874e-06
1.10759e-06
1.10593e-06
1.10593e-06
1.10593e-06
1.10593e-06
1.10593e-06
1.10593e-06
1.10593e-06
1.10779e-06
1.10806e-06
1.10896e-06
1.10881e-06
1.10795e-06
1.10757e-06
1.10593e-06
1.10593e-06
1.10593e-06
1.10593e-06
1.10593e-06
1.10775e-06
1.10797e-06
1.10813e-06
1.10878e-06
1.10794e-06
1.10759e-06
1.10593e-06
1.10593e-06
1.10593e-06
1.10779e-06
1.10797e-06
1.1081e-06
1.10894e-06
1.10878e-06
1.10803e-06
1.10805e-06
1.10802e-06
1.10803e-06
1.10806e-06
1.10813e-06
1.10894e-06
1.10884e-06
1.10895e-06
1.10895e-06
1.10895e-06
1.10896e-06
1.09831e-06
1.09734e-06
1.09727e-06
1.09732e-06
1.09828e-06
1.09834e-06
1.09835e-06
1.09748e-06
1.09698e-06
1.09546e-06
1.09546e-06
1.09546e-06
1.09712e-06
1.09748e-06
1.09831e-06
1.09748e-06
1.09695e-06
1.09546e-06
1.09546e-06
1.09546e-06
1.09546e-06
1.09546e-06
1.0971e-06
1.09748e-06
1.09831e-06
1.09831e-06
1.09698e-06
1.09546e-06
1.09546e-06
1.09546e-06
1.09546e-06
1.09546e-06
1.09546e-06
1.09546e-06
1.09712e-06
1.09756e-06
1.09837e-06
1.09734e-06
1.09546e-06
1.09546e-06
1.09546e-06
1.09546e-06
1.09546e-06
1.09546e-06
1.09546e-06
1.09546e-06
1.09546e-06
1.09758e-06
1.09848e-06
1.09727e-06
1.09546e-06
1.09546e-06
1.09546e-06
1.09546e-06
1.09546e-06
1.09546e-06
1.09546e-06
1.09546e-06
1.09546e-06
1.09756e-06
1.09848e-06
1.09732e-06
1.09546e-06
1.09546e-06
1.09546e-06
1.09546e-06
1.09546e-06
1.09546e-06
1.09546e-06
1.09546e-06
1.09546e-06
1.09757e-06
1.09848e-06
1.09828e-06
1.09712e-06
1.09546e-06
1.09546e-06
1.09546e-06
1.09546e-06
1.09546e-06
1.09546e-06
1.09546e-06
1.09732e-06
1.09759e-06
1.09849e-06
1.09834e-06
1.09748e-06
1.0971e-06
1.09546e-06
1.09546e-06
1.09546e-06
1.09546e-06
1.09546e-06
1.09728e-06
1.0975e-06
1.09766e-06
1.09831e-06
1.09748e-06
1.09712e-06
1.09546e-06
1.09546e-06
1.09546e-06
1.09732e-06
1.0975e-06
1.09763e-06
1.09848e-06
1.09831e-06
1.09756e-06
1.09758e-06
1.09756e-06
1.09757e-06
1.09759e-06
1.09766e-06
1.09848e-06
1.09837e-06
1.09848e-06
1.09848e-06
1.09848e-06
1.09849e-06
1.08784e-06
1.08688e-06
1.0868e-06
1.08685e-06
1.08781e-06
1.08788e-06
1.08788e-06
1.08701e-06
1.08651e-06
1.08499e-06
1.08499e-06
1.08499e-06
1.08666e-06
1.08701e-06
1.08784e-06
1.08701e-06
1.08648e-06
1.08499e-06
1.08499e-06
1.08499e-06
1.08499e-06
1.08499e-06
1.08663e-06
1.08701e-06
1.08785e-06
1.08784e-06
1.08651e-06
1.08499e-06
1.08499e-06
1.08499e-06
1.08499e-06
1.08499e-06
1.08499e-06
1.08499e-06
1.08665e-06
1.08709e-06
1.0879e-06
1.08688e-06
1.08499e-06
1.08499e-06
1.08499e-06
1.08499e-06
1.08499e-06
1.08499e-06
1.08499e-06
1.08499e-06
1.08499e-06
1.08711e-06
1.08801e-06
1.0868e-06
1.08499e-06
1.08499e-06
1.08499e-06
1.08499e-06
1.08499e-06
1.08499e-06
1.08499e-06
1.08499e-06
1.08499e-06
1.08709e-06
1.08801e-06
1.08685e-06
1.08499e-06
1.08499e-06
1.08499e-06
1.08499e-06
1.08499e-06
1.08499e-06
1.08499e-06
1.08499e-06
1.08499e-06
1.0871e-06
1.08801e-06
1.08781e-06
1.08666e-06
1.08499e-06
1.08499e-06
1.08499e-06
1.08499e-06
1.08499e-06
1.08499e-06
1.08499e-06
1.08685e-06
1.08712e-06
1.08802e-06
1.08788e-06
1.08701e-06
1.08663e-06
1.08499e-06
1.08499e-06
1.08499e-06
1.08499e-06
1.08499e-06
1.08681e-06
1.08704e-06
1.08719e-06
1.08784e-06
1.08701e-06
1.08665e-06
1.08499e-06
1.08499e-06
1.08499e-06
1.08685e-06
1.08704e-06
1.08717e-06
1.08801e-06
1.08785e-06
1.08709e-06
1.08711e-06
1.08709e-06
1.0871e-06
1.08712e-06
1.08719e-06
1.08801e-06
1.0879e-06
1.08801e-06
1.08801e-06
1.08801e-06
1.08802e-06
1.07738e-06
1.07641e-06
1.07634e-06
1.07639e-06
1.07734e-06
1.07741e-06
1.07742e-06
1.07655e-06
1.07604e-06
1.07452e-06
1.07452e-06
1.07452e-06
1.07619e-06
1.07654e-06
1.07737e-06
1.07655e-06
1.07601e-06
1.07452e-06
1.07452e-06
1.07452e-06
1.07452e-06
1.07452e-06
1.07616e-06
1.07654e-06
1.07738e-06
1.07738e-06
1.07604e-06
1.07452e-06
1.07452e-06
1.07452e-06
1.07452e-06
1.07452e-06
1.07452e-06
1.07452e-06
1.07619e-06
1.07663e-06
1.07743e-06
1.07641e-06
1.07452e-06
1.07452e-06
1.07452e-06
1.07452e-06
1.07452e-06
1.07452e-06
1.07452e-06
1.07452e-06
1.07452e-06
1.07664e-06
1.07755e-06
1.07634e-06
1.07452e-06
1.07452e-06
1.07452e-06
1.07452e-06
1.07452e-06
1.07452e-06
1.07452e-06
1.07452e-06
1.07452e-06
1.07662e-06
1.07754e-06
1.07639e-06
1.07452e-06
1.07452e-06
1.07452e-06
1.07452e-06
1.07452e-06
1.07452e-06
1.07452e-06
1.07452e-06
1.07452e-06
1.07663e-06
1.07755e-06
1.07734e-06
1.07619e-06
1.07452e-06
1.07452e-06
1.07452e-06
1.07452e-06
1.07452e-06
1.07452e-06
1.07452e-06
1.07638e-06
1.07666e-06
1.07755e-06
1.07741e-06
1.07654e-06
1.07616e-06
1.07452e-06
1.07452e-06
1.07452e-06
1.07452e-06
1.07452e-06
1.07635e-06
1.07657e-06
1.07673e-06
1.07737e-06
1.07654e-06
1.07619e-06
1.07452e-06
1.07452e-06
1.07452e-06
1.07638e-06
1.07657e-06
1.0767e-06
1.07754e-06
1.07738e-06
1.07663e-06
1.07664e-06
1.07662e-06
1.07663e-06
1.07666e-06
1.07672e-06
1.07754e-06
1.07743e-06
1.07755e-06
1.07754e-06
1.07755e-06
1.07755e-06
1.06691e-06
1.06594e-06
1.06587e-06
1.06592e-06
1.06687e-06
1.06694e-06
1.06695e-06
1.06608e-06
1.06558e-06
1.06406e-06
1.06406e-06
1.06406e-06
1.06572e-06
1.06608e-06
1.06691e-06
1.06608e-06
1.06554e-06
1.06406e-06
1.06406e-06
1.06406e-06
1.06406e-06
1.06406e-06
1.0657e-06
1.06607e-06
1.06691e-06
1.06691e-06
1.06558e-06
1.06406e-06
1.06406e-06
1.06406e-06
1.06406e-06
1.06406e-06
1.06406e-06
1.06406e-06
1.06572e-06
1.06616e-06
1.06697e-06
1.06594e-06
1.06406e-06
1.06406e-06
1.06406e-06
1.06406e-06
1.06406e-06
1.06406e-06
1.06406e-06
1.06406e-06
1.06406e-06
1.06618e-06
1.06708e-06
1.06587e-06
1.06406e-06
1.06406e-06
1.06406e-06
1.06406e-06
1.06406e-06
1.06406e-06
1.06406e-06
1.06406e-06
1.06406e-06
1.06615e-06
1.06708e-06
1.06592e-06
1.06406e-06
1.06406e-06
1.06406e-06
1.06406e-06
1.06406e-06
1.06406e-06
1.06406e-06
1.06406e-06
1.06406e-06
1.06616e-06
1.06708e-06
1.06687e-06
1.06572e-06
1.06406e-06
1.06406e-06
1.06406e-06
1.06406e-06
1.06406e-06
1.06406e-06
1.06406e-06
1.06592e-06
1.06619e-06
1.06709e-06
1.06694e-06
1.06608e-06
1.0657e-06
1.06406e-06
1.06406e-06
1.06406e-06
1.06406e-06
1.06406e-06
1.06588e-06
1.0661e-06
1.06626e-06
1.06691e-06
1.06607e-06
1.06572e-06
1.06406e-06
1.06406e-06
1.06406e-06
1.06592e-06
1.0661e-06
1.06623e-06
1.06707e-06
1.06691e-06
1.06616e-06
1.06618e-06
1.06615e-06
1.06616e-06
1.06619e-06
1.06626e-06
1.06707e-06
1.06697e-06
1.06708e-06
1.06708e-06
1.06708e-06
1.06709e-06
1.05644e-06
1.05547e-06
1.0554e-06
1.05545e-06
1.0564e-06
1.05647e-06
1.05648e-06
1.05561e-06
1.05511e-06
1.05359e-06
1.05359e-06
1.05359e-06
1.05525e-06
1.05561e-06
1.05644e-06
1.05561e-06
1.05508e-06
1.05359e-06
1.05359e-06
1.05359e-06
1.05359e-06
1.05359e-06
1.05523e-06
1.05561e-06
1.05644e-06
1.05644e-06
1.05511e-06
1.05359e-06
1.05359e-06
1.05359e-06
1.05359e-06
1.05359e-06
1.05359e-06
1.05359e-06
1.05525e-06
1.05569e-06
1.0565e-06
1.05547e-06
1.05359e-06
1.05359e-06
1.05359e-06
1.05359e-06
1.05359e-06
1.05359e-06
1.05359e-06
1.05359e-06
1.05359e-06
1.05571e-06
1.05661e-06
1.0554e-06
1.05359e-06
1.05359e-06
1.05359e-06
1.05359e-06
1.05359e-06
1.05359e-06
1.05359e-06
1.05359e-06
1.05359e-06
1.05569e-06
1.05661e-06
1.05545e-06
1.05359e-06
1.05359e-06
1.05359e-06
1.05359e-06
1.05359e-06
1.05359e-06
1.05359e-06
1.05359e-06
1.05359e-06
1.0557e-06
1.05661e-06
1.0564e-06
1.05525e-06
1.05359e-06
1.05359e-06
1.05359e-06
1.05359e-06
1.05359e-06
1.05359e-06
1.05359e-06
1.05545e-06
1.05572e-06
1.05662e-06
1.05647e-06
1.05561e-06
1.05523e-06
1.05359e-06
1.05359e-06
1.05359e-06
1.05359e-06
1.05359e-06
1.05541e-06
1.05563e-06
1.05579e-06
1.05644e-06
1.05561e-06
1.05525e-06
1.05359e-06
1.05359e-06
1.05359e-06
1.05545e-06
1.05563e-06
1.05576e-06
1.05661e-06
1.05644e-06
1.05569e-06
1.05571e-06
1.05569e-06
1.0557e-06
1.05572e-06
1.05579e-06
1.05661e-06
1.0565e-06
1.05661e-06
1.05661e-06
1.05661e-06
1.05662e-06
1.04597e-06
1.04501e-06
1.04493e-06
1.04498e-06
1.04594e-06
1.046e-06
1.04601e-06
1.04514e-06
1.04464e-06
1.04312e-06
1.04312e-06
1.04312e-06
1.04478e-06
1.04514e-06
1.04597e-06
1.04514e-06
1.04461e-06
1.04312e-06
1.04312e-06
1.04312e-06
1.04312e-06
1.04312e-06
1.04476e-06
1.04514e-06
1.04597e-06
1.04597e-06
1.04464e-06
1.04312e-06
1.04312e-06
1.04312e-06
1.04312e-06
1.04312e-06
1.04312e-06
1.04312e-06
1.04478e-06
1.04522e-06
1.04603e-06
1.04501e-06
1.04312e-06
1.04312e-06
1.04312e-06
1.04312e-06
1.04312e-06
1.04312e-06
1.04312e-06
1.04312e-06
1.04312e-06
1.04524e-06
1.04614e-06
1.04493e-06
1.04312e-06
1.04312e-06
1.04312e-06
1.04312e-06
1.04312e-06
1.04312e-06
1.04312e-06
1.04312e-06
1.04312e-06
1.04522e-06
1.04614e-06
1.04498e-06
1.04312e-06
1.04312e-06
1.04312e-06
1.04312e-06
1.04312e-06
1.04312e-06
1.04312e-06
1.04312e-06
1.04312e-06
1.04523e-06
1.04614e-06
1.04594e-06
1.04478e-06
1.04312e-06
1.04312e-06
1.04312e-06
1.04312e-06
1.04312e-06
1.04312e-06
1.04312e-06
1.04498e-06
1.04525e-06
1.04615e-06
1.046e-06
1.04514e-06
1.04476e-06
1.04312e-06
1.04312e-06
1.04312e-06
1.04312e-06
1.04312e-06
1.04494e-06
1.04517e-06
1.04532e-06
1.04597e-06
1.04514e-06
1.04478e-06
1.04312e-06
1.04312e-06
1.04312e-06
1.04498e-06
1.04517e-06
1.0453e-06
1.04614e-06
1.04597e-06
1.04522e-06
1.04524e-06
1.04522e-06
1.04523e-06
1.04525e-06
1.04532e-06
1.04614e-06
1.04603e-06
1.04614e-06
1.04614e-06
1.04614e-06
1.04615e-06
1.03551e-06
1.03454e-06
1.03447e-06
1.03452e-06
1.03547e-06
1.03554e-06
1.03555e-06
1.03468e-06
1.03417e-06
1.03265e-06
1.03265e-06
1.03265e-06
1.03432e-06
1.03467e-06
1.0355e-06
1.03468e-06
1.03414e-06
1.03265e-06
1.03265e-06
1.03265e-06
1.03265e-06
1.03265e-06
1.03429e-06
1.03467e-06
1.03551e-06
1.03551e-06
1.03417e-06
1.03265e-06
1.03265e-06
1.03265e-06
1.03265e-06
1.03265e-06
1.03265e-06
1.03265e-06
1.03432e-06
1.03476e-06
1.03556e-06
1.03454e-06
1.03265e-06
1.03265e-06
1.03265e-06
1.03265e-06
1.03265e-06
1.03265e-06
1.03265e-06
1.03265e-06
1.03265e-06
1.03477e-06
1.03568e-06
1.03447e-06
1.03265e-06
1.03265e-06
1.03265e-06
1.03265e-06
1.03265e-06
1.03265e-06
1.03265e-06
1.03265e-06
1.03265e-06
1.03475e-06
1.03567e-06
1.03452e-06
1.03265e-06
1.03265e-06
1.03265e-06
1.03265e-06
1.03265e-06
1.03265e-06