/*--------------------------------*- C++ -*----------------------------------*\
| =========                 |                                                 |
| \\      /  F ield         | OpenFOAM: The Open Source CFD Toolbox           |
|  \\    /   O peration     | Version:  v2012                                 |
|   \\  /    A nd           | Website:  www.openfoam.com                      |
|    \\/     M anipulation  |                                                 |
\*---------------------------------------------------------------------------*/
FoamFile
{
    version     2.0;
    format      ascii;
    class       volScalarField;
    location    "45";
    object      p;
}
// * * * * * * * * * * * * * * * * * * * * * * * * * * * * * * * * * * * * * //

dimensions      [0 2 -2 0 0 0 0];


internalField   nonuniform List<scalar> 
292667
(
1.24205e-06
1.23243e-06
1.23164e-06
1.23171e-06
1.2328e-06
1.24297e-06
1.23264e-06
1.22988e-06
1.22827e-06
1.22761e-06
1.22769e-06
1.22855e-06
1.23041e-06
1.23343e-06
1.23264e-06
1.22907e-06
1.22685e-06
1.22563e-06
1.22511e-06
1.22518e-06
1.22585e-06
1.22727e-06
1.22977e-06
1.23367e-06
1.24205e-06
1.22988e-06
1.22685e-06
1.22505e-06
1.22405e-06
1.22362e-06
1.22368e-06
1.22424e-06
1.2254e-06
1.22744e-06
1.23084e-06
1.24176e-06
1.23243e-06
1.22827e-06
1.22563e-06
1.22405e-06
1.22316e-06
1.22277e-06
1.22282e-06
1.22333e-06
1.22437e-06
1.22616e-06
1.22915e-06
1.23621e-06
1.23164e-06
1.22761e-06
1.22511e-06
1.22362e-06
1.22277e-06
1.2224e-06
1.22245e-06
1.22293e-06
1.22392e-06
1.22562e-06
1.22846e-06
1.23448e-06
1.23171e-06
1.22769e-06
1.22518e-06
1.22368e-06
1.22282e-06
1.22245e-06
1.2225e-06
1.22299e-06
1.22399e-06
1.2257e-06
1.22856e-06
1.23481e-06
1.2328e-06
1.22855e-06
1.22585e-06
1.22424e-06
1.22333e-06
1.22293e-06
1.22299e-06
1.2235e-06
1.22456e-06
1.2264e-06
1.22948e-06
1.23653e-06
1.24297e-06
1.23041e-06
1.22727e-06
1.2254e-06
1.22437e-06
1.22392e-06
1.22398e-06
1.22456e-06
1.22578e-06
1.22791e-06
1.23143e-06
1.24169e-06
1.23343e-06
1.22977e-06
1.22744e-06
1.22616e-06
1.22562e-06
1.2257e-06
1.2264e-06
1.22791e-06
1.23057e-06
1.23714e-06
1.23367e-06
1.23084e-06
1.22915e-06
1.22846e-06
1.22856e-06
1.22948e-06
1.23143e-06
1.23714e-06
1.24176e-06
1.23621e-06
1.23448e-06
1.23481e-06
1.23653e-06
1.24168e-06
1.21472e-06
1.2138e-06
1.21377e-06
1.2138e-06
1.21468e-06
1.21459e-06
1.21478e-06
1.21405e-06
1.21365e-06
1.21218e-06
1.21215e-06
1.21218e-06
1.21381e-06
1.21408e-06
1.21478e-06
1.21405e-06
1.21365e-06
1.21222e-06
1.21216e-06
1.21221e-06
1.21216e-06
1.21222e-06
1.21378e-06
1.21405e-06
1.21476e-06
1.21472e-06
1.21365e-06
1.21222e-06
1.21216e-06
1.2122e-06
1.21218e-06
1.2122e-06
1.21216e-06
1.21222e-06
1.21377e-06
1.21407e-06
1.21483e-06
1.2138e-06
1.21218e-06
1.21216e-06
1.2122e-06
1.21216e-06
1.21216e-06
1.21216e-06
1.2122e-06
1.21216e-06
1.21218e-06
1.2142e-06
1.21495e-06
1.21377e-06
1.21215e-06
1.21221e-06
1.21218e-06
1.21216e-06
1.21215e-06
1.21216e-06
1.21218e-06
1.21221e-06
1.21215e-06
1.21421e-06
1.21483e-06
1.2138e-06
1.21218e-06
1.21216e-06
1.2122e-06
1.21216e-06
1.21216e-06
1.21216e-06
1.2122e-06
1.21216e-06
1.21218e-06
1.21421e-06
1.21486e-06
1.21468e-06
1.21381e-06
1.21222e-06
1.21216e-06
1.2122e-06
1.21218e-06
1.2122e-06
1.21216e-06
1.21222e-06
1.21393e-06
1.21412e-06
1.21491e-06
1.21459e-06
1.21408e-06
1.21378e-06
1.21222e-06
1.21216e-06
1.21221e-06
1.21216e-06
1.21222e-06
1.2139e-06
1.21408e-06
1.21411e-06
1.21478e-06
1.21405e-06
1.21377e-06
1.21218e-06
1.21215e-06
1.21218e-06
1.21393e-06
1.21408e-06
1.21417e-06
1.2149e-06
1.21476e-06
1.21407e-06
1.2142e-06
1.21421e-06
1.21421e-06
1.21412e-06
1.21411e-06
1.2149e-06
1.21483e-06
1.21495e-06
1.21483e-06
1.21486e-06
1.21491e-06
1.20438e-06
1.20346e-06
1.20339e-06
1.20344e-06
1.20435e-06
1.20441e-06
1.20442e-06
1.2036e-06
1.20315e-06
1.2017e-06
1.2017e-06
1.2017e-06
1.2033e-06
1.20362e-06
1.20438e-06
1.2036e-06
1.20313e-06
1.20175e-06
1.20175e-06
1.20179e-06
1.20175e-06
1.20175e-06
1.2033e-06
1.20362e-06
1.20438e-06
1.20438e-06
1.20315e-06
1.20175e-06
1.20176e-06
1.20182e-06
1.20182e-06
1.20182e-06
1.20176e-06
1.20175e-06
1.2033e-06
1.20368e-06
1.20444e-06
1.20346e-06
1.2017e-06
1.20175e-06
1.20182e-06
1.20183e-06
1.20185e-06
1.20183e-06
1.20182e-06
1.20175e-06
1.2017e-06
1.20371e-06
1.20456e-06
1.20339e-06
1.2017e-06
1.20179e-06
1.20182e-06
1.20185e-06
1.20186e-06
1.20185e-06
1.20182e-06
1.20179e-06
1.2017e-06
1.20371e-06
1.20456e-06
1.20344e-06
1.2017e-06
1.20175e-06
1.20182e-06
1.20183e-06
1.20185e-06
1.20183e-06
1.20182e-06
1.20175e-06
1.2017e-06
1.20371e-06
1.20456e-06
1.20435e-06
1.2033e-06
1.20175e-06
1.20176e-06
1.20182e-06
1.20182e-06
1.20182e-06
1.20176e-06
1.20175e-06
1.20349e-06
1.20371e-06
1.20456e-06
1.20441e-06
1.20362e-06
1.2033e-06
1.20175e-06
1.20175e-06
1.20179e-06
1.20175e-06
1.20175e-06
1.20346e-06
1.20364e-06
1.20375e-06
1.20438e-06
1.20362e-06
1.2033e-06
1.2017e-06
1.2017e-06
1.2017e-06
1.20349e-06
1.20364e-06
1.20373e-06
1.20454e-06
1.20438e-06
1.20368e-06
1.20371e-06
1.20371e-06
1.20371e-06
1.20371e-06
1.20375e-06
1.20454e-06
1.20444e-06
1.20456e-06
1.20456e-06
1.20456e-06
1.20456e-06
1.19409e-06
1.19316e-06
1.19309e-06
1.19313e-06
1.19406e-06
1.19412e-06
1.19413e-06
1.19329e-06
1.19281e-06
1.19135e-06
1.19135e-06
1.19135e-06
1.19296e-06
1.1933e-06
1.19409e-06
1.19329e-06
1.19279e-06
1.19137e-06
1.19138e-06
1.19141e-06
1.19138e-06
1.19137e-06
1.19294e-06
1.1933e-06
1.19409e-06
1.19409e-06
1.19281e-06
1.19137e-06
1.1914e-06
1.19143e-06
1.19144e-06
1.19143e-06
1.1914e-06
1.19137e-06
1.19296e-06
1.19337e-06
1.19415e-06
1.19316e-06
1.19135e-06
1.19139e-06
1.19144e-06
1.19145e-06
1.19147e-06
1.19145e-06
1.19144e-06
1.19139e-06
1.19135e-06
1.19339e-06
1.19426e-06
1.19309e-06
1.19135e-06
1.19141e-06
1.19144e-06
1.19147e-06
1.19148e-06
1.19147e-06
1.19144e-06
1.19141e-06
1.19135e-06
1.19338e-06
1.19426e-06
1.19313e-06
1.19135e-06
1.19138e-06
1.19144e-06
1.19145e-06
1.19147e-06
1.19145e-06
1.19144e-06
1.19139e-06
1.19135e-06
1.19339e-06
1.19427e-06
1.19406e-06
1.19296e-06
1.19137e-06
1.1914e-06
1.19144e-06
1.19144e-06
1.19144e-06
1.1914e-06
1.19137e-06
1.19315e-06
1.1934e-06
1.19427e-06
1.19412e-06
1.1933e-06
1.19294e-06
1.19137e-06
1.19139e-06
1.19141e-06
1.19139e-06
1.19137e-06
1.19313e-06
1.19332e-06
1.19346e-06
1.19409e-06
1.1933e-06
1.19296e-06
1.19135e-06
1.19135e-06
1.19135e-06
1.19315e-06
1.19332e-06
1.19344e-06
1.19425e-06
1.19409e-06
1.19337e-06
1.19339e-06
1.19338e-06
1.19339e-06
1.1934e-06
1.19346e-06
1.19425e-06
1.19415e-06
1.19426e-06
1.19426e-06
1.19427e-06
1.19427e-06
1.18379e-06
1.18286e-06
1.18278e-06
1.18283e-06
1.18376e-06
1.18382e-06
1.18383e-06
1.18299e-06
1.1825e-06
1.18103e-06
1.18103e-06
1.18103e-06
1.18264e-06
1.18299e-06
1.18379e-06
1.18299e-06
1.18247e-06
1.18104e-06
1.18105e-06
1.18106e-06
1.18105e-06
1.18104e-06
1.18262e-06
1.18299e-06
1.1838e-06
1.18379e-06
1.1825e-06
1.18104e-06
1.18106e-06
1.18108e-06
1.18108e-06
1.18108e-06
1.18106e-06
1.18104e-06
1.18265e-06
1.18307e-06
1.18385e-06
1.18286e-06
1.18103e-06
1.18105e-06
1.18108e-06
1.18109e-06
1.1811e-06
1.18109e-06
1.18108e-06
1.18105e-06
1.18103e-06
1.18309e-06
1.18397e-06
1.18278e-06
1.18103e-06
1.18106e-06
1.18108e-06
1.1811e-06
1.18111e-06
1.1811e-06
1.18108e-06
1.18106e-06
1.18103e-06
1.18308e-06
1.18397e-06
1.18283e-06
1.18103e-06
1.18105e-06
1.18108e-06
1.18109e-06
1.1811e-06
1.18109e-06
1.18108e-06
1.18105e-06
1.18103e-06
1.18308e-06
1.18397e-06
1.18376e-06
1.18264e-06
1.18104e-06
1.18106e-06
1.18108e-06
1.18108e-06
1.18108e-06
1.18106e-06
1.18104e-06
1.18284e-06
1.1831e-06
1.18397e-06
1.18382e-06
1.18299e-06
1.18262e-06
1.18104e-06
1.18105e-06
1.18106e-06
1.18105e-06
1.18104e-06
1.18281e-06
1.18302e-06
1.18316e-06
1.18379e-06
1.18299e-06
1.18265e-06
1.18103e-06
1.18103e-06
1.18103e-06
1.18284e-06
1.18302e-06
1.18314e-06
1.18396e-06
1.1838e-06
1.18307e-06
1.18309e-06
1.18308e-06
1.18308e-06
1.1831e-06
1.18316e-06
1.18396e-06
1.18385e-06
1.18397e-06
1.18397e-06
1.18397e-06
1.18397e-06
1.17349e-06
1.17255e-06
1.17248e-06
1.17253e-06
1.17346e-06
1.17353e-06
1.17353e-06
1.17269e-06
1.1722e-06
1.17072e-06
1.17072e-06
1.17072e-06
1.17234e-06
1.17269e-06
1.17349e-06
1.17269e-06
1.17216e-06
1.17072e-06
1.17073e-06
1.17074e-06
1.17073e-06
1.17072e-06
1.17232e-06
1.17269e-06
1.1735e-06
1.17349e-06
1.1722e-06
1.17072e-06
1.17074e-06
1.17075e-06
1.17075e-06
1.17075e-06
1.17074e-06
1.17072e-06
1.17234e-06
1.17277e-06
1.17355e-06
1.17255e-06
1.17072e-06
1.17073e-06
1.17075e-06
1.17076e-06
1.17076e-06
1.17076e-06
1.17075e-06
1.17073e-06
1.17072e-06
1.17279e-06
1.17367e-06
1.17248e-06
1.17072e-06
1.17074e-06
1.17075e-06
1.17076e-06
1.17077e-06
1.17076e-06
1.17075e-06
1.17074e-06
1.17072e-06
1.17277e-06
1.17367e-06
1.17253e-06
1.17072e-06
1.17073e-06
1.17075e-06
1.17076e-06
1.17076e-06
1.17076e-06
1.17075e-06
1.17073e-06
1.17072e-06
1.17278e-06
1.17367e-06
1.17346e-06
1.17234e-06
1.17072e-06
1.17074e-06
1.17075e-06
1.17075e-06
1.17075e-06
1.17074e-06
1.17072e-06
1.17254e-06
1.1728e-06
1.17367e-06
1.17353e-06
1.17269e-06
1.17232e-06
1.17072e-06
1.17073e-06
1.17074e-06
1.17073e-06
1.17072e-06
1.17251e-06
1.17272e-06
1.17287e-06
1.17349e-06
1.17269e-06
1.17234e-06
1.17072e-06
1.17072e-06
1.17072e-06
1.17254e-06
1.17272e-06
1.17284e-06
1.17366e-06
1.1735e-06
1.17277e-06
1.17279e-06
1.17277e-06
1.17278e-06
1.1728e-06
1.17287e-06
1.17366e-06
1.17355e-06
1.17367e-06
1.17367e-06
1.17367e-06
1.17367e-06
1.16319e-06
1.16225e-06
1.16218e-06
1.16223e-06
1.16316e-06
1.16323e-06
1.16323e-06
1.16239e-06
1.16189e-06
1.16041e-06
1.16041e-06
1.16041e-06
1.16204e-06
1.16239e-06
1.16319e-06
1.16239e-06
1.16186e-06
1.16042e-06
1.16042e-06
1.16042e-06
1.16042e-06
1.16042e-06
1.16201e-06
1.16239e-06
1.1632e-06
1.16319e-06
1.16189e-06
1.16042e-06
1.16042e-06
1.16043e-06
1.16043e-06
1.16043e-06
1.16042e-06
1.16042e-06
1.16204e-06
1.16247e-06
1.16325e-06
1.16225e-06
1.16041e-06
1.16042e-06
1.16043e-06
1.16043e-06
1.16044e-06
1.16043e-06
1.16043e-06
1.16042e-06
1.16041e-06
1.16249e-06
1.16337e-06
1.16218e-06
1.16041e-06
1.16042e-06
1.16043e-06
1.16044e-06
1.16044e-06
1.16044e-06
1.16043e-06
1.16042e-06
1.16041e-06
1.16247e-06
1.16337e-06
1.16223e-06
1.16041e-06
1.16042e-06
1.16043e-06
1.16043e-06
1.16044e-06
1.16044e-06
1.16043e-06
1.16042e-06
1.16041e-06
1.16248e-06
1.16337e-06
1.16316e-06
1.16204e-06
1.16042e-06
1.16042e-06
1.16043e-06
1.16043e-06
1.16043e-06
1.16042e-06
1.16042e-06
1.16224e-06
1.1625e-06
1.16337e-06
1.16323e-06
1.16239e-06
1.16201e-06
1.16042e-06
1.16042e-06
1.16042e-06
1.16042e-06
1.16042e-06
1.1622e-06
1.16241e-06
1.16257e-06
1.16319e-06
1.16239e-06
1.16204e-06
1.16041e-06
1.16041e-06
1.16041e-06
1.16224e-06
1.16241e-06
1.16254e-06
1.16336e-06
1.1632e-06
1.16247e-06
1.16249e-06
1.16247e-06
1.16248e-06
1.1625e-06
1.16257e-06
1.16336e-06
1.16325e-06
1.16337e-06
1.16337e-06
1.16337e-06
1.16337e-06
1.15289e-06
1.15195e-06
1.15188e-06
1.15193e-06
1.15286e-06
1.15293e-06
1.15293e-06
1.15209e-06
1.15159e-06
1.15011e-06
1.15011e-06
1.15011e-06
1.15174e-06
1.15209e-06
1.15289e-06
1.15209e-06
1.15156e-06
1.15011e-06
1.15011e-06
1.15012e-06
1.15011e-06
1.15011e-06
1.15171e-06
1.15208e-06
1.1529e-06
1.15289e-06
1.15159e-06
1.15011e-06
1.15012e-06
1.15012e-06
1.15012e-06
1.15012e-06
1.15012e-06
1.15011e-06
1.15174e-06
1.15217e-06
1.15295e-06
1.15195e-06
1.15011e-06
1.15011e-06
1.15012e-06
1.15012e-06
1.15012e-06
1.15012e-06
1.15012e-06
1.15011e-06
1.15011e-06
1.15219e-06
1.15307e-06
1.15188e-06
1.15011e-06
1.15012e-06
1.15012e-06
1.15012e-06
1.15013e-06
1.15012e-06
1.15012e-06
1.15012e-06
1.15011e-06
1.15217e-06
1.15307e-06
1.15193e-06
1.15011e-06
1.15011e-06
1.15012e-06
1.15012e-06
1.15012e-06
1.15012e-06
1.15012e-06
1.15011e-06
1.15011e-06
1.15218e-06
1.15307e-06
1.15286e-06
1.15174e-06
1.15011e-06
1.15012e-06
1.15012e-06
1.15012e-06
1.15012e-06
1.15012e-06
1.15011e-06
1.15193e-06
1.1522e-06
1.15307e-06
1.15293e-06
1.15209e-06
1.15171e-06
1.15011e-06
1.15011e-06
1.15012e-06
1.15011e-06
1.15011e-06
1.1519e-06
1.15211e-06
1.15227e-06
1.15289e-06
1.15208e-06
1.15174e-06
1.15011e-06
1.15011e-06
1.15011e-06
1.15193e-06
1.15211e-06
1.15224e-06
1.15306e-06
1.1529e-06
1.15217e-06
1.15219e-06
1.15217e-06
1.15218e-06
1.1522e-06
1.15227e-06
1.15306e-06
1.15295e-06
1.15307e-06
1.15307e-06
1.15307e-06
1.15307e-06
1.14259e-06
1.14165e-06
1.14158e-06
1.14163e-06
1.14256e-06
1.14263e-06
1.14263e-06
1.14179e-06
1.14129e-06
1.13981e-06
1.13981e-06
1.13981e-06
1.14144e-06
1.14179e-06
1.14259e-06
1.14179e-06
1.14126e-06
1.13981e-06
1.13981e-06
1.13981e-06
1.13981e-06
1.13981e-06
1.14141e-06
1.14178e-06
1.1426e-06
1.14259e-06
1.14129e-06
1.13981e-06
1.13981e-06
1.13981e-06
1.13981e-06
1.13981e-06
1.13981e-06
1.13981e-06
1.14144e-06
1.14187e-06
1.14265e-06
1.14165e-06
1.13981e-06
1.13981e-06
1.13981e-06
1.13982e-06
1.13982e-06
1.13982e-06
1.13981e-06
1.13981e-06
1.13981e-06
1.14189e-06
1.14277e-06
1.14158e-06
1.13981e-06
1.13981e-06
1.13981e-06
1.13982e-06
1.13982e-06
1.13982e-06
1.13981e-06
1.13981e-06
1.13981e-06
1.14187e-06
1.14277e-06
1.14163e-06
1.13981e-06
1.13981e-06
1.13981e-06
1.13982e-06
1.13982e-06
1.13982e-06
1.13981e-06
1.13981e-06
1.13981e-06
1.14188e-06
1.14277e-06
1.14256e-06
1.14144e-06
1.13981e-06
1.13981e-06
1.13981e-06
1.13981e-06
1.13981e-06
1.13981e-06
1.13981e-06
1.14163e-06
1.1419e-06
1.14277e-06
1.14263e-06
1.14179e-06
1.14141e-06
1.13981e-06
1.13981e-06
1.13981e-06
1.13981e-06
1.13981e-06
1.1416e-06
1.14181e-06
1.14197e-06
1.14259e-06
1.14178e-06
1.14144e-06
1.13981e-06
1.13981e-06
1.13981e-06
1.14163e-06
1.14181e-06
1.14194e-06
1.14276e-06
1.1426e-06
1.14187e-06
1.14189e-06
1.14187e-06
1.14188e-06
1.1419e-06
1.14197e-06
1.14276e-06
1.14265e-06
1.14277e-06
1.14277e-06
1.14277e-06
1.14277e-06
1.13229e-06
1.13135e-06
1.13128e-06
1.13133e-06
1.13226e-06
1.13232e-06
1.13233e-06
1.13148e-06
1.13099e-06
1.12951e-06
1.12951e-06
1.12951e-06
1.13113e-06
1.13148e-06
1.13229e-06
1.13148e-06
1.13096e-06
1.12951e-06
1.12951e-06
1.12951e-06
1.12951e-06
1.12951e-06
1.13111e-06
1.13148e-06
1.1323e-06
1.13229e-06
1.13099e-06
1.12951e-06
1.12951e-06
1.12951e-06
1.12951e-06
1.12951e-06
1.12951e-06
1.12951e-06
1.13113e-06
1.13157e-06
1.13235e-06
1.13135e-06
1.12951e-06
1.12951e-06
1.12951e-06
1.12951e-06
1.12951e-06
1.12951e-06
1.12951e-06
1.12951e-06
1.12951e-06
1.13159e-06
1.13247e-06
1.13128e-06
1.12951e-06
1.12951e-06
1.12951e-06
1.12951e-06
1.12951e-06
1.12951e-06
1.12951e-06
1.12951e-06
1.12951e-06
1.13157e-06
1.13247e-06
1.13133e-06
1.12951e-06
1.12951e-06
1.12951e-06
1.12951e-06
1.12951e-06
1.12951e-06
1.12951e-06
1.12951e-06
1.12951e-06
1.13158e-06
1.13247e-06
1.13226e-06
1.13113e-06
1.12951e-06
1.12951e-06
1.12951e-06
1.12951e-06
1.12951e-06
1.12951e-06
1.12951e-06
1.13133e-06
1.1316e-06
1.13247e-06
1.13232e-06
1.13148e-06
1.13111e-06
1.12951e-06
1.12951e-06
1.12951e-06
1.12951e-06
1.12951e-06
1.1313e-06
1.13151e-06
1.13166e-06
1.13229e-06
1.13148e-06
1.13113e-06
1.12951e-06
1.12951e-06
1.12951e-06
1.13133e-06
1.13151e-06
1.13164e-06
1.13246e-06
1.1323e-06
1.13157e-06
1.13159e-06
1.13157e-06
1.13158e-06
1.1316e-06
1.13166e-06
1.13246e-06
1.13235e-06
1.13247e-06
1.13247e-06
1.13247e-06
1.13247e-06
1.12199e-06
1.12105e-06
1.12098e-06
1.12103e-06
1.12196e-06
1.12202e-06
1.12203e-06
1.12118e-06
1.12069e-06
1.11921e-06
1.11921e-06
1.11921e-06
1.12083e-06
1.12118e-06
1.12199e-06
1.12118e-06
1.12065e-06
1.11921e-06
1.11921e-06
1.11921e-06
1.11921e-06
1.11921e-06
1.12081e-06
1.12118e-06
1.122e-06
1.12199e-06
1.12069e-06
1.11921e-06
1.11921e-06
1.11921e-06
1.11921e-06
1.11921e-06
1.11921e-06
1.11921e-06
1.12083e-06
1.12127e-06
1.12205e-06
1.12105e-06
1.11921e-06
1.11921e-06
1.11921e-06
1.11921e-06
1.11921e-06
1.11921e-06
1.11921e-06
1.11921e-06
1.11921e-06
1.12129e-06
1.12217e-06
1.12098e-06
1.11921e-06
1.11921e-06
1.11921e-06
1.11921e-06
1.11921e-06
1.11921e-06
1.11921e-06
1.11921e-06
1.11921e-06
1.12127e-06
1.12216e-06
1.12103e-06
1.11921e-06
1.11921e-06
1.11921e-06
1.11921e-06
1.11921e-06
1.11921e-06
1.11921e-06
1.11921e-06
1.11921e-06
1.12127e-06
1.12217e-06
1.12196e-06
1.12083e-06
1.11921e-06
1.11921e-06
1.11921e-06
1.11921e-06
1.11921e-06
1.11921e-06
1.11921e-06
1.12103e-06
1.1213e-06
1.12217e-06
1.12202e-06
1.12118e-06
1.12081e-06
1.11921e-06
1.11921e-06
1.11921e-06
1.11921e-06
1.11921e-06
1.121e-06
1.12121e-06
1.12136e-06
1.12199e-06
1.12118e-06
1.12083e-06
1.11921e-06
1.11921e-06
1.11921e-06
1.12103e-06
1.12121e-06
1.12134e-06
1.12216e-06
1.122e-06
1.12127e-06
1.12129e-06
1.12127e-06
1.12127e-06
1.1213e-06
1.12136e-06
1.12216e-06
1.12205e-06
1.12217e-06
1.12216e-06
1.12217e-06
1.12217e-06
1.11169e-06
1.11075e-06
1.11068e-06
1.11073e-06
1.11166e-06
1.11172e-06
1.11173e-06
1.11088e-06
1.11039e-06
1.1089e-06
1.1089e-06
1.1089e-06
1.11053e-06
1.11088e-06
1.11169e-06
1.11088e-06
1.11035e-06
1.1089e-06
1.10891e-06
1.1089e-06
1.10891e-06
1.1089e-06
1.11051e-06
1.11088e-06
1.11169e-06
1.11169e-06
1.11039e-06
1.1089e-06
1.1089e-06
1.1089e-06
1.10891e-06
1.10891e-06
1.1089e-06
1.1089e-06
1.11053e-06
1.11096e-06
1.11175e-06
1.11075e-06
1.1089e-06
1.10891e-06
1.1089e-06
1.10891e-06
1.10891e-06
1.10891e-06
1.1089e-06
1.10891e-06
1.1089e-06
1.11098e-06
1.11186e-06
1.11068e-06
1.1089e-06
1.1089e-06
1.10891e-06
1.10891e-06
1.10891e-06
1.10891e-06
1.10891e-06
1.1089e-06
1.1089e-06
1.11097e-06
1.11186e-06
1.11073e-06
1.1089e-06
1.10891e-06
1.1089e-06
1.10891e-06
1.10891e-06
1.10891e-06
1.1089e-06
1.10891e-06
1.1089e-06
1.11097e-06
1.11186e-06
1.11166e-06
1.11053e-06
1.1089e-06
1.1089e-06
1.10891e-06
1.10891e-06
1.1089e-06
1.1089e-06
1.1089e-06
1.11073e-06
1.111e-06
1.11187e-06
1.11172e-06
1.11088e-06
1.11051e-06
1.1089e-06
1.10891e-06
1.1089e-06
1.10891e-06
1.1089e-06
1.1107e-06
1.11091e-06
1.11106e-06
1.11169e-06
1.11088e-06
1.11053e-06
1.1089e-06
1.1089e-06
1.1089e-06
1.11073e-06
1.11091e-06
1.11104e-06
1.11186e-06
1.11169e-06
1.11096e-06
1.11098e-06
1.11097e-06
1.11097e-06
1.111e-06
1.11106e-06
1.11186e-06
1.11175e-06
1.11186e-06
1.11186e-06
1.11186e-06
1.11187e-06
1.10139e-06
1.10045e-06
1.10038e-06
1.10043e-06
1.10136e-06
1.10142e-06
1.10143e-06
1.10058e-06
1.10009e-06
1.0986e-06
1.0986e-06
1.0986e-06
1.10023e-06
1.10058e-06
1.10139e-06
1.10058e-06
1.10005e-06
1.0986e-06
1.0986e-06
1.0986e-06
1.0986e-06
1.0986e-06
1.10021e-06
1.10058e-06
1.10139e-06
1.10139e-06
1.10009e-06
1.0986e-06
1.0986e-06
1.0986e-06
1.0986e-06
1.0986e-06
1.0986e-06
1.0986e-06
1.10023e-06
1.10066e-06
1.10145e-06
1.10045e-06
1.0986e-06
1.0986e-06
1.0986e-06
1.0986e-06
1.0986e-06
1.0986e-06
1.0986e-06
1.0986e-06
1.0986e-06
1.10068e-06
1.10156e-06
1.10038e-06
1.0986e-06
1.0986e-06
1.0986e-06
1.0986e-06
1.0986e-06
1.0986e-06
1.0986e-06
1.0986e-06
1.0986e-06
1.10066e-06
1.10156e-06
1.10043e-06
1.0986e-06
1.0986e-06
1.0986e-06
1.0986e-06
1.0986e-06
1.0986e-06
1.0986e-06
1.0986e-06
1.0986e-06
1.10067e-06
1.10156e-06
1.10136e-06
1.10023e-06
1.0986e-06
1.0986e-06
1.0986e-06
1.0986e-06
1.0986e-06
1.0986e-06
1.0986e-06
1.10043e-06
1.1007e-06
1.10157e-06
1.10142e-06
1.10058e-06
1.10021e-06
1.0986e-06
1.0986e-06
1.0986e-06
1.0986e-06
1.0986e-06
1.10039e-06
1.10061e-06
1.10076e-06
1.10139e-06
1.10058e-06
1.10023e-06
1.0986e-06
1.0986e-06
1.0986e-06
1.10043e-06
1.10061e-06
1.10074e-06
1.10156e-06
1.10139e-06
1.10066e-06
1.10068e-06
1.10066e-06
1.10067e-06
1.1007e-06
1.10076e-06
1.10156e-06
1.10145e-06
1.10156e-06
1.10156e-06
1.10156e-06
1.10157e-06
1.09109e-06
1.09015e-06
1.09008e-06
1.09012e-06
1.09106e-06
1.09112e-06
1.09113e-06
1.09028e-06
1.08978e-06
1.0883e-06
1.0883e-06
1.0883e-06
1.08993e-06
1.09028e-06
1.09109e-06
1.09028e-06
1.08975e-06
1.0883e-06
1.0883e-06
1.0883e-06
1.0883e-06
1.0883e-06
1.08991e-06
1.09028e-06
1.09109e-06
1.09109e-06
1.08978e-06
1.0883e-06
1.0883e-06
1.0883e-06
1.0883e-06
1.0883e-06
1.0883e-06
1.0883e-06
1.08993e-06
1.09036e-06
1.09114e-06
1.09015e-06
1.0883e-06
1.0883e-06
1.0883e-06
1.0883e-06
1.0883e-06
1.0883e-06
1.0883e-06
1.0883e-06
1.0883e-06
1.09038e-06
1.09126e-06
1.09008e-06
1.0883e-06
1.0883e-06
1.0883e-06
1.0883e-06
1.0883e-06
1.0883e-06
1.0883e-06
1.0883e-06
1.0883e-06
1.09036e-06
1.09126e-06
1.09012e-06
1.0883e-06
1.0883e-06
1.0883e-06
1.0883e-06
1.0883e-06
1.0883e-06
1.0883e-06
1.0883e-06
1.0883e-06
1.09037e-06
1.09126e-06
1.09106e-06
1.08993e-06
1.0883e-06
1.0883e-06
1.0883e-06
1.0883e-06
1.0883e-06
1.0883e-06
1.0883e-06
1.09013e-06
1.09039e-06
1.09127e-06
1.09112e-06
1.09028e-06
1.08991e-06
1.0883e-06
1.0883e-06
1.0883e-06
1.0883e-06
1.0883e-06
1.09009e-06
1.09031e-06
1.09046e-06
1.09109e-06
1.09028e-06
1.08993e-06
1.0883e-06
1.0883e-06
1.0883e-06
1.09013e-06
1.09031e-06
1.09044e-06
1.09125e-06
1.09109e-06
1.09036e-06
1.09038e-06
1.09036e-06
1.09037e-06
1.09039e-06
1.09046e-06
1.09125e-06
1.09114e-06
1.09126e-06
1.09126e-06
1.09126e-06
1.09127e-06
1.08079e-06
1.07985e-06
1.07977e-06
1.07982e-06
1.08076e-06
1.08082e-06
1.08082e-06
1.07998e-06
1.07948e-06
1.078e-06
1.078e-06
1.078e-06
1.07963e-06
1.07998e-06
1.08079e-06
1.07998e-06
1.07945e-06
1.078e-06
1.078e-06
1.078e-06
1.078e-06
1.078e-06
1.0796e-06
1.07998e-06
1.08079e-06
1.08079e-06
1.07948e-06
1.078e-06
1.078e-06
1.078e-06
1.078e-06
1.078e-06
1.078e-06
1.078e-06
1.07963e-06
1.08006e-06
1.08084e-06
1.07985e-06
1.078e-06
1.078e-06
1.078e-06
1.078e-06
1.078e-06
1.078e-06
1.078e-06
1.078e-06
1.078e-06
1.08008e-06
1.08096e-06
1.07977e-06
1.078e-06
1.078e-06
1.078e-06
1.078e-06
1.078e-06
1.078e-06
1.078e-06
1.078e-06
1.078e-06
1.08006e-06
1.08096e-06
1.07982e-06
1.078e-06
1.078e-06
1.078e-06
1.078e-06
1.078e-06
1.078e-06
1.078e-06
1.078e-06
1.078e-06
1.08007e-06
1.08096e-06
1.08076e-06
1.07963e-06
1.078e-06
1.078e-06
1.078e-06
1.078e-06
1.078e-06
1.078e-06
1.078e-06
1.07983e-06
1.08009e-06
1.08097e-06
1.08082e-06
1.07998e-06
1.0796e-06
1.078e-06
1.078e-06
1.078e-06
1.078e-06
1.078e-06
1.07979e-06
1.08001e-06
1.08016e-06
1.08079e-06
1.07998e-06
1.07963e-06
1.078e-06
1.078e-06
1.078e-06
1.07983e-06
1.08001e-06
1.08013e-06
1.08095e-06
1.08079e-06
1.08006e-06
1.08008e-06
1.08006e-06
1.08007e-06
1.08009e-06
1.08016e-06
1.08095e-06
1.08084e-06
1.08096e-06
1.08096e-06
1.08096e-06
1.08097e-06
1.07049e-06
1.06954e-06
1.06947e-06
1.06952e-06
1.07045e-06
1.07052e-06
1.07052e-06
1.06968e-06
1.06918e-06
1.0677e-06
1.0677e-06
1.0677e-06
1.06933e-06
1.06968e-06
1.07049e-06
1.06968e-06
1.06915e-06
1.0677e-06
1.0677e-06
1.0677e-06
1.0677e-06
1.0677e-06
1.0693e-06
1.06968e-06
1.07049e-06
1.07049e-06
1.06918e-06
1.0677e-06
1.0677e-06
1.0677e-06
1.0677e-06
1.0677e-06
1.0677e-06
1.0677e-06
1.06933e-06
1.06976e-06
1.07054e-06
1.06954e-06
1.0677e-06
1.0677e-06
1.0677e-06
1.0677e-06
1.0677e-06
1.0677e-06
1.0677e-06
1.0677e-06
1.0677e-06
1.06978e-06
1.07066e-06
1.06947e-06
1.0677e-06
1.0677e-06
1.0677e-06
1.0677e-06
1.0677e-06
1.0677e-06
1.0677e-06
1.0677e-06
1.0677e-06
1.06976e-06
1.07066e-06
1.06952e-06
1.0677e-06
1.0677e-06
1.0677e-06
1.0677e-06
1.0677e-06
1.0677e-06
1.0677e-06
1.0677e-06
1.0677e-06
1.06977e-06
1.07066e-06
1.07045e-06
1.06933e-06
1.0677e-06
1.0677e-06
1.0677e-06
1.0677e-06
1.0677e-06
1.0677e-06
1.0677e-06
1.06953e-06
1.06979e-06
1.07066e-06
1.07052e-06
1.06968e-06
1.0693e-06
1.0677e-06
1.0677e-06
1.0677e-06
1.0677e-06
1.0677e-06
1.06949e-06
1.0697e-06
1.06986e-06
1.07049e-06
1.06968e-06
1.06933e-06
1.0677e-06
1.0677e-06
1.0677e-06
1.06953e-06
1.0697e-06
1.06983e-06
1.07065e-06
1.07049e-06
1.06976e-06
1.06978e-06
1.06976e-06
1.06977e-06
1.06979e-06
1.06986e-06
1.07065e-06
1.07054e-06
1.07066e-06
1.07066e-06
1.07066e-06
1.07066e-06
1.06018e-06
1.05924e-06
1.05917e-06
1.05922e-06
1.06015e-06
1.06022e-06
1.06022e-06
1.05938e-06
1.05888e-06
1.0574e-06
1.0574e-06
1.0574e-06
1.05903e-06
1.05938e-06
1.06019e-06
1.05938e-06
1.05885e-06
1.0574e-06
1.0574e-06
1.0574e-06
1.0574e-06
1.0574e-06
1.059e-06
1.05937e-06
1.06019e-06
1.06018e-06
1.05888e-06
1.0574e-06
1.0574e-06
1.0574e-06
1.0574e-06
1.0574e-06
1.0574e-06
1.0574e-06
1.05903e-06
1.05946e-06
1.06024e-06
1.05924e-06
1.0574e-06
1.0574e-06
1.0574e-06
1.0574e-06
1.0574e-06
1.0574e-06
1.0574e-06
1.0574e-06
1.0574e-06
1.05948e-06
1.06036e-06
1.05917e-06
1.0574e-06
1.0574e-06
1.0574e-06
1.0574e-06
1.0574e-06
1.0574e-06
1.0574e-06
1.0574e-06
1.0574e-06
1.05946e-06
1.06036e-06
1.05922e-06
1.0574e-06
1.0574e-06
1.0574e-06
1.0574e-06
1.0574e-06
1.0574e-06
1.0574e-06
1.0574e-06
1.0574e-06
1.05947e-06
1.06036e-06
1.06015e-06
1.05903e-06
1.0574e-06
1.0574e-06
1.0574e-06
1.0574e-06
1.0574e-06
1.0574e-06
1.0574e-06
1.05922e-06
1.05949e-06
1.06036e-06
1.06022e-06
1.05938e-06
1.059e-06
1.0574e-06
1.0574e-06
1.0574e-06
1.0574e-06
1.0574e-06
1.05919e-06
1.0594e-06
1.05956e-06
1.06019e-06
1.05937e-06
1.05903e-06
1.0574e-06
1.0574e-06
1.0574e-06
1.05922e-06
1.0594e-06
1.05953e-06
1.06035e-06
1.06019e-06
1.05946e-06
1.05948e-06
1.05946e-06
1.05947e-06
1.05949e-06
1.05956e-06
1.06035e-06
1.06024e-06
1.06036e-06
1.06036e-06
1.06036e-06
1.06036e-06
1.04988e-06
1.04894e-06
1.04887e-06
1.04892e-06
1.04985e-06
1.04992e-06
1.04992e-06
1.04908e-06
1.04858e-06
1.0471e-06
1.0471e-06
1.0471e-06
1.04872e-06
1.04908e-06
1.04988e-06
1.04908e-06
1.04855e-06
1.0471e-06
1.0471e-06
1.0471e-06
1.0471e-06
1.0471e-06
1.0487e-06
1.04907e-06
1.04989e-06
1.04988e-06
1.04858e-06
1.0471e-06
1.0471e-06
1.0471e-06
1.0471e-06
1.0471e-06
1.0471e-06
1.0471e-06
1.04872e-06
1.04916e-06
1.04994e-06
1.04894e-06
1.0471e-06
1.0471e-06
1.0471e-06
1.0471e-06
1.0471e-06
1.0471e-06
1.0471e-06
1.0471e-06
1.0471e-06
1.04918e-06
1.05006e-06
1.04887e-06
1.0471e-06
1.0471e-06
1.0471e-06
1.0471e-06
1.0471e-06
1.0471e-06
1.0471e-06
1.0471e-06
1.0471e-06
1.04916e-06
1.05006e-06
1.04892e-06
1.0471e-06
1.0471e-06
1.0471e-06
1.0471e-06
1.0471e-06
1.0471e-06
1.0471e-06
1.0471e-06
1.0471e-06
1.04917e-06
1.05006e-06
1.04985e-06
1.04872e-06
1.0471e-06
1.0471e-06
1.0471e-06
1.0471e-06
1.0471e-06
1.0471e-06
1.0471e-06
1.04892e-06
1.04919e-06
1.05006e-06
1.04992e-06
1.04908e-06
1.0487e-06
1.0471e-06
1.0471e-06
1.0471e-06
1.0471e-06
1.0471e-06
1.04889e-06
1.0491e-06
1.04926e-06
1.04988e-06
1.04907e-06
1.04872e-06
1.0471e-06
1.0471e-06
1.0471e-06
1.04892e-06
1.0491e-06
1.04923e-06
1.05005e-06
1.04989e-06
1.04916e-06
1.04918e-06
1.04916e-06
1.04917e-06
1.04919e-06
1.04926e-06
1.05005e-06
1.04994e-06
1.05006e-06
1.05006e-06
1.05006e-06
1.05006e-06
1.03958e-06
1.03864e-06
1.03857e-06
1.03862e-06
1.03955e-06
1.03961e-06
1.03962e-06
1.03877e-06
1.03828e-06
1.0368e-06
1.0368e-06
1.0368e-06
1.03842e-06
1.03877e-06
1.03958e-06
1.03877e-06
1.03825e-06
1.0368e-06
1.0368e-06
1.0368e-06
1.0368e-06
1.0368e-06
1.0384e-06
1.03877e-06
1.03959e-06
1.03958e-06
1.03828e-06
1.0368e-06
1.0368e-06
1.0368e-06
1.0368e-06
1.0368e-06
1.0368e-06
1.0368e-06
1.03842e-06
1.03886e-06
1.03964e-06
1.03864e-06
1.0368e-06
1.0368e-06
1.0368e-06
1.0368e-06
1.0368e-06
1.0368e-06
1.0368e-06
1.0368e-06
1.0368e-06
1.03888e-06
1.03976e-06
1.03857e-06
1.0368e-06
1.0368e-06
1.0368e-06
1.0368e-06
1.0368e-06
1.0368e-06
1.0368e-06
1.0368e-06
1.0368e-06
1.03886e-06
1.03976e-06
1.03862e-06
1.0368e-06
1.0368e-06
1.0368e-06
1.0368e-06
1.0368e-06
1.0368e-06
1.0368e-06
1.0368e-06
1.0368e-06
1.03887e-06
1.03976e-06
1.03955e-06
1.03842e-06
1.0368e-06
1.0368e-06
1.0368e-06
1.0368e-06
1.0368e-06
1.0368e-06
1.0368e-06
1.03862e-06
1.03889e-06
1.03976e-06
1.03961e-06
1.03877e-06
1.0384e-06
1.0368e-06
1.0368e-06
1.0368e-06
1.0368e-06
1.0368e-06
1.03859e-06
1.0388e-06
1.03895e-06
1.03958e-06
1.03877e-06
1.03842e-06
1.0368e-06
1.0368e-06
1.0368e-06
1.03862e-06
1.0388e-06
1.03893e-06
1.03975e-06
1.03959e-06
1.03886e-06
1.03888e-06
1.03886e-06
1.03887e-06
1.03889e-06
1.03895e-06
1.03975e-06
1.03964e-06
1.03976e-06
1.03976e-06
1.03976e-06
1.03976e-06
1.02928e-06
1.02834e-06
1.02827e-06
1.02832e-06
1.02925e-06
1.02931e-06
1.02932e-06
1.02847e-06
1.02798e-06
1.02649e-06
1.0265e-06
1.02649e-06
1.02812e-06
1.02847e-06
1.02928e-06
1.02847e-06
1.02794e-06
1.0265e-06
1.0265e-06
1.0265e-06
1.0265e-06
1.0265e-06
1.0281e-06
1.02847e-06
1.02929e-06
1.02928e-06
1.02798e-06
1.0265e-06
1.0265e-06
1.0265e-06
1.0265e-06
1.0265e-06
1.0265e-06
1.0265e-06
1.02812e-06
1.02856e-06
1.02934e-06
1.02834e-06
1.02649e-06
1.0265e-06
1.0265e-06
1.0265e-06
1.0265e-06
1.0265e-06
1.0265e-06
1.0265e-06
1.02649e-06
1.02858e-06
1.02946e-06
1.02827e-06
1.0265e-06
1.0265e-06
1.0265e-06
1.0265e-06
1.0265e-06
1.0265e-06
1.0265e-06
1.0265e-06
1.0265e-06
1.02856e-06
1.02945e-06
1.02832e-06
1.02649e-06
1.0265e-06
1.0265e-06
1.0265e-06
1.0265e-06
1.0265e-06
1.0265e-06
1.0265e-06
1.02649e-06
1.02856e-06
1.02946e-06
1.02925e-06
1.02812e-06
1.0265e-06
1.0265e-06
1.0265e-06
1.0265e-06
1.0265e-06
1.0265e-06
1.0265e-06
1.02832e-06
1.02859e-06
1.02946e-06
1.02931e-06
1.02847e-06
1.0281e-06
1.0265e-06
1.0265e-06
1.0265e-06
1.0265e-06
1.0265e-06
1.02829e-06
1.0285e-06
1.02865e-06
1.02928e-06
1.02847e-06
1.02812e-06
1.02649e-06
1.0265e-06
1.02649e-06
1.02832e-06
1.0285e-06
1.02863e-06
1.02945e-06
1.02929e-06
1.02856e-06
1.02858e-06
1.02856e-06
1.02856e-06
1.02859e-06
1.02865e-06
1.02945e-06
1.02934e-06
1.02946e-06
1.02945e-06
1.02946e-06
1.02946e-06
1.01898e-06
1.01804e-06
1.01797e-06
1.01802e-06
1.01895e-06
1.01901e-06
1.01902e-06
1.01817e-06
1.01768e-06
1.01619e-06
1.01619e-06
1.01619e-06
1.01782e-06
1.01817e-06
1.01898e-06
1.01817e-06
1.01764e-06
1.01619e-06
1.01619e-06
1.01619e-06
1.01619e-06
1.01619e-06
1.0178e-06
1.01817e-06
1.01898e-06
1.01898e-06
1.01768e-06
1.01619e-06
1.01619e-06
1.01619e-06
1.01619e-06
1.01619e-06
1.01619e-06
1.01619e-06
1.01782e-06
1.01825e-06
1.01904e-06
1.01804e-06
1.01619e-06
1.01619e-06
1.01619e-06
1.01619e-06
1.01619e-06
1.01619e-06
1.01619e-06
1.01619e-06
1.01619e-06
1.01827e-06
1.01915e-06
1.01797e-06
1.01619e-06
1.01619e-06
1.01619e-06
1.01619e-06
1.01619e-06
1.01619e-06
1.01619e-06
1.01619e-06
1.01619e-06
1.01826e-06
1.01915e-06
1.01802e-06
1.01619e-06
1.01619e-06
1.01619e-06
1.01619e-06
1.01619e-06
1.01619e-06
1.01619e-06
1.01619e-06
1.01619e-06
1.01826e-06
1.01915e-06
1.01895e-06
1.01782e-06
1.01619e-06
1.01619e-06
1.01619e-06
1.01619e-06
1.01619e-06
1.01619e-06
1.01619e-06
1.01802e-06
1.01829e-06
1.01916e-06
1.01901e-06
1.01817e-06
1.0178e-06
1.01619e-06
1.01619e-06
1.01619e-06
1.01619e-06
1.01619e-06
1.01798e-06
1.0182e-06
1.01835e-06
1.01898e-06
1.01817e-06
1.01782e-06
1.01619e-06
1.01619e-06
1.01619e-06
1.01802e-06