/*--------------------------------*- C++ -*----------------------------------*\
| =========                 |                                                 |
| \\      /  F ield         | OpenFOAM: The Open Source CFD Toolbox           |
|  \\    /   O peration     | Version:  v2012                                 |
|   \\  /    A nd           | Website:  www.openfoam.com                      |
|    \\/     M anipulation  |                                                 |
\*---------------------------------------------------------------------------*/
FoamFile
{
    version     2.0;
    format      ascii;
    class       volScalarField;
    location    "30";
    object      p;
}
// * * * * * * * * * * * * * * * * * * * * * * * * * * * * * * * * * * * * * //

dimensions      [0 2 -2 0 0 0 0];


internalField   nonuniform List<scalar> 
292667
(
1.42602e-06
1.41539e-06
1.41447e-06
1.41456e-06
1.41585e-06
1.42699e-06
1.4156e-06
1.41235e-06
1.41047e-06
1.40971e-06
1.40981e-06
1.41081e-06
1.41299e-06
1.41657e-06
1.4156e-06
1.41139e-06
1.40882e-06
1.40742e-06
1.40682e-06
1.40691e-06
1.40768e-06
1.40932e-06
1.41224e-06
1.41686e-06
1.42602e-06
1.41235e-06
1.40882e-06
1.40676e-06
1.4056e-06
1.40511e-06
1.40517e-06
1.40582e-06
1.40716e-06
1.40952e-06
1.4135e-06
1.42605e-06
1.41539e-06
1.41047e-06
1.40742e-06
1.4056e-06
1.40457e-06
1.40412e-06
1.40419e-06
1.40477e-06
1.40597e-06
1.40803e-06
1.41152e-06
1.41976e-06
1.41447e-06
1.40971e-06
1.40682e-06
1.40511e-06
1.40412e-06
1.4037e-06
1.40376e-06
1.40431e-06
1.40545e-06
1.40741e-06
1.4107e-06
1.41776e-06
1.41456e-06
1.40981e-06
1.40691e-06
1.40517e-06
1.40419e-06
1.40376e-06
1.40382e-06
1.40438e-06
1.40552e-06
1.4075e-06
1.41082e-06
1.4181e-06
1.41585e-06
1.41082e-06
1.40768e-06
1.40582e-06
1.40477e-06
1.40431e-06
1.40438e-06
1.40497e-06
1.40619e-06
1.40831e-06
1.4119e-06
1.42013e-06
1.42699e-06
1.41299e-06
1.40932e-06
1.40716e-06
1.40597e-06
1.40545e-06
1.40552e-06
1.40619e-06
1.4076e-06
1.41007e-06
1.4142e-06
1.42611e-06
1.41657e-06
1.41224e-06
1.40952e-06
1.40803e-06
1.40741e-06
1.4075e-06
1.40832e-06
1.41007e-06
1.41317e-06
1.42065e-06
1.41686e-06
1.4135e-06
1.41152e-06
1.4107e-06
1.41082e-06
1.4119e-06
1.4142e-06
1.42064e-06
1.42605e-06
1.41976e-06
1.41776e-06
1.4181e-06
1.42013e-06
1.42611e-06
1.39508e-06
1.39387e-06
1.39384e-06
1.39387e-06
1.39494e-06
1.39491e-06
1.39515e-06
1.39419e-06
1.39374e-06
1.39193e-06
1.39191e-06
1.39193e-06
1.39386e-06
1.39415e-06
1.39509e-06
1.39419e-06
1.39376e-06
1.39199e-06
1.3919e-06
1.39195e-06
1.3919e-06
1.39199e-06
1.39383e-06
1.39412e-06
1.39506e-06
1.39508e-06
1.39374e-06
1.39199e-06
1.39191e-06
1.39195e-06
1.39194e-06
1.39195e-06
1.39191e-06
1.39199e-06
1.39381e-06
1.39414e-06
1.39518e-06
1.39387e-06
1.39193e-06
1.3919e-06
1.39195e-06
1.39192e-06
1.39191e-06
1.39192e-06
1.39195e-06
1.3919e-06
1.39193e-06
1.39422e-06
1.39523e-06
1.39384e-06
1.39191e-06
1.39195e-06
1.39194e-06
1.39191e-06
1.39191e-06
1.39191e-06
1.39194e-06
1.39195e-06
1.39191e-06
1.3942e-06
1.39503e-06
1.39387e-06
1.39193e-06
1.3919e-06
1.39195e-06
1.39192e-06
1.39191e-06
1.39192e-06
1.39195e-06
1.3919e-06
1.39193e-06
1.39422e-06
1.39508e-06
1.39494e-06
1.39386e-06
1.39199e-06
1.39191e-06
1.39195e-06
1.39194e-06
1.39195e-06
1.39191e-06
1.39199e-06
1.39392e-06
1.39417e-06
1.39522e-06
1.39491e-06
1.39415e-06
1.39383e-06
1.39199e-06
1.3919e-06
1.39195e-06
1.3919e-06
1.39199e-06
1.39388e-06
1.39411e-06
1.3942e-06
1.39509e-06
1.39413e-06
1.39381e-06
1.39193e-06
1.39191e-06
1.39193e-06
1.39392e-06
1.39411e-06
1.39428e-06
1.39523e-06
1.39506e-06
1.39414e-06
1.39422e-06
1.3942e-06
1.39422e-06
1.39417e-06
1.39421e-06
1.39523e-06
1.39518e-06
1.39523e-06
1.39503e-06
1.39508e-06
1.39523e-06
1.38317e-06
1.38203e-06
1.38195e-06
1.382e-06
1.38309e-06
1.38319e-06
1.38323e-06
1.38221e-06
1.3817e-06
1.37991e-06
1.37991e-06
1.37991e-06
1.38183e-06
1.38219e-06
1.38314e-06
1.38221e-06
1.3817e-06
1.37997e-06
1.37996e-06
1.38e-06
1.37996e-06
1.37997e-06
1.38182e-06
1.38218e-06
1.38314e-06
1.38317e-06
1.3817e-06
1.37997e-06
1.37997e-06
1.38004e-06
1.38005e-06
1.38004e-06
1.37997e-06
1.37997e-06
1.38182e-06
1.38224e-06
1.38323e-06
1.38203e-06
1.37991e-06
1.37996e-06
1.38004e-06
1.38006e-06
1.38008e-06
1.38006e-06
1.38004e-06
1.37996e-06
1.37991e-06
1.38224e-06
1.38331e-06
1.38195e-06
1.37991e-06
1.38e-06
1.38005e-06
1.38008e-06
1.38009e-06
1.38008e-06
1.38005e-06
1.38e-06
1.37991e-06
1.38223e-06
1.38329e-06
1.382e-06
1.37991e-06
1.37996e-06
1.38004e-06
1.38006e-06
1.38008e-06
1.38006e-06
1.38004e-06
1.37996e-06
1.37991e-06
1.38223e-06
1.38329e-06
1.3831e-06
1.38183e-06
1.37997e-06
1.37998e-06
1.38004e-06
1.38005e-06
1.38004e-06
1.37997e-06
1.37997e-06
1.38196e-06
1.38225e-06
1.38333e-06
1.38319e-06
1.38219e-06
1.38183e-06
1.37997e-06
1.37996e-06
1.38e-06
1.37996e-06
1.37997e-06
1.38193e-06
1.38216e-06
1.38232e-06
1.38314e-06
1.38218e-06
1.38182e-06
1.37991e-06
1.37991e-06
1.37991e-06
1.38196e-06
1.38216e-06
1.3823e-06
1.38332e-06
1.38314e-06
1.38224e-06
1.38224e-06
1.38223e-06
1.38223e-06
1.38225e-06
1.38233e-06
1.38332e-06
1.38323e-06
1.38331e-06
1.38329e-06
1.38329e-06
1.38333e-06
1.37136e-06
1.3702e-06
1.37012e-06
1.37017e-06
1.37128e-06
1.37138e-06
1.37141e-06
1.37037e-06
1.36983e-06
1.36803e-06
1.36802e-06
1.36803e-06
1.36996e-06
1.37035e-06
1.37132e-06
1.37037e-06
1.36981e-06
1.36806e-06
1.36806e-06
1.36809e-06
1.36806e-06
1.36806e-06
1.36994e-06
1.37034e-06
1.37133e-06
1.37136e-06
1.36983e-06
1.36806e-06
1.36808e-06
1.36812e-06
1.36813e-06
1.36812e-06
1.36808e-06
1.36806e-06
1.36995e-06
1.37042e-06
1.37142e-06
1.3702e-06
1.36803e-06
1.36806e-06
1.36812e-06
1.36815e-06
1.36816e-06
1.36815e-06
1.36812e-06
1.36806e-06
1.36803e-06
1.3704e-06
1.3715e-06
1.37012e-06
1.36802e-06
1.36809e-06
1.36813e-06
1.36816e-06
1.36817e-06
1.36816e-06
1.36813e-06
1.36809e-06
1.36802e-06
1.37038e-06
1.37148e-06
1.37017e-06
1.36803e-06
1.36806e-06
1.36812e-06
1.36815e-06
1.36816e-06
1.36815e-06
1.36812e-06
1.36806e-06
1.36803e-06
1.37039e-06
1.37148e-06
1.37128e-06
1.36996e-06
1.36806e-06
1.36808e-06
1.36812e-06
1.36813e-06
1.36812e-06
1.36808e-06
1.36806e-06
1.37011e-06
1.37043e-06
1.37152e-06
1.37138e-06
1.37035e-06
1.36994e-06
1.36806e-06
1.36806e-06
1.36809e-06
1.36806e-06
1.36806e-06
1.37008e-06
1.37033e-06
1.37051e-06
1.37132e-06
1.37034e-06
1.36995e-06
1.36803e-06
1.36802e-06
1.36803e-06
1.37011e-06
1.37033e-06
1.37048e-06
1.37151e-06
1.37133e-06
1.37042e-06
1.3704e-06
1.37038e-06
1.37039e-06
1.37043e-06
1.37051e-06
1.37151e-06
1.37142e-06
1.3715e-06
1.37148e-06
1.37148e-06
1.37152e-06
1.35954e-06
1.35837e-06
1.35829e-06
1.35834e-06
1.35946e-06
1.35956e-06
1.35959e-06
1.35854e-06
1.35799e-06
1.35618e-06
1.35618e-06
1.35618e-06
1.35812e-06
1.35852e-06
1.3595e-06
1.35854e-06
1.35796e-06
1.35619e-06
1.3562e-06
1.35621e-06
1.3562e-06
1.35619e-06
1.35809e-06
1.35851e-06
1.35951e-06
1.35954e-06
1.35799e-06
1.35619e-06
1.35621e-06
1.35624e-06
1.35624e-06
1.35624e-06
1.35621e-06
1.35619e-06
1.35811e-06
1.35859e-06
1.3596e-06
1.35837e-06
1.35618e-06
1.3562e-06
1.35624e-06
1.35625e-06
1.35626e-06
1.35625e-06
1.35624e-06
1.3562e-06
1.35618e-06
1.35858e-06
1.35968e-06
1.35829e-06
1.35618e-06
1.35621e-06
1.35624e-06
1.35626e-06
1.35627e-06
1.35626e-06
1.35624e-06
1.35621e-06
1.35618e-06
1.35855e-06
1.35965e-06
1.35834e-06
1.35618e-06
1.3562e-06
1.35624e-06
1.35625e-06
1.35626e-06
1.35625e-06
1.35624e-06
1.3562e-06
1.35618e-06
1.35856e-06
1.35966e-06
1.35946e-06
1.35812e-06
1.35619e-06
1.35621e-06
1.35624e-06
1.35624e-06
1.35624e-06
1.35621e-06
1.35619e-06
1.35827e-06
1.35861e-06
1.3597e-06
1.35956e-06
1.35852e-06
1.35809e-06
1.35619e-06
1.3562e-06
1.35621e-06
1.3562e-06
1.35619e-06
1.35824e-06
1.3585e-06
1.35869e-06
1.3595e-06
1.35851e-06
1.35811e-06
1.35618e-06
1.35618e-06
1.35618e-06
1.35827e-06
1.3585e-06
1.35866e-06
1.35969e-06
1.35951e-06
1.35859e-06
1.35858e-06
1.35855e-06
1.35856e-06
1.35861e-06
1.35869e-06
1.35969e-06
1.3596e-06
1.35968e-06
1.35966e-06
1.35966e-06
1.3597e-06
1.34771e-06
1.34655e-06
1.34647e-06
1.34652e-06
1.34763e-06
1.34774e-06
1.34777e-06
1.34671e-06
1.34616e-06
1.34434e-06
1.34434e-06
1.34434e-06
1.34629e-06
1.34669e-06
1.34768e-06
1.34671e-06
1.34613e-06
1.34435e-06
1.34436e-06
1.34436e-06
1.34436e-06
1.34435e-06
1.34626e-06
1.34668e-06
1.34769e-06
1.34771e-06
1.34616e-06
1.34435e-06
1.34436e-06
1.34437e-06
1.34438e-06
1.34437e-06
1.34436e-06
1.34435e-06
1.34628e-06
1.34677e-06
1.34778e-06
1.34655e-06
1.34434e-06
1.34436e-06
1.34438e-06
1.34439e-06
1.34439e-06
1.34439e-06
1.34438e-06
1.34436e-06
1.34434e-06
1.34675e-06
1.34785e-06
1.34647e-06
1.34434e-06
1.34436e-06
1.34438e-06
1.34439e-06
1.3444e-06
1.34439e-06
1.34438e-06
1.34436e-06
1.34434e-06
1.34672e-06
1.34783e-06
1.34652e-06
1.34434e-06
1.34436e-06
1.34437e-06
1.34439e-06
1.34439e-06
1.34439e-06
1.34437e-06
1.34436e-06
1.34434e-06
1.34673e-06
1.34783e-06
1.34763e-06
1.34629e-06
1.34435e-06
1.34436e-06
1.34438e-06
1.34438e-06
1.34438e-06
1.34436e-06
1.34435e-06
1.34644e-06
1.34678e-06
1.34787e-06
1.34774e-06
1.34669e-06
1.34626e-06
1.34435e-06
1.34436e-06
1.34436e-06
1.34436e-06
1.34435e-06
1.34641e-06
1.34668e-06
1.34687e-06
1.34768e-06
1.34668e-06
1.34628e-06
1.34434e-06
1.34434e-06
1.34434e-06
1.34644e-06
1.34668e-06
1.34684e-06
1.34787e-06
1.34769e-06
1.34677e-06
1.34675e-06
1.34672e-06
1.34673e-06
1.34678e-06
1.34687e-06
1.34787e-06
1.34778e-06
1.34785e-06
1.34783e-06
1.34783e-06
1.34787e-06
1.33589e-06
1.33472e-06
1.33464e-06
1.33469e-06
1.33581e-06
1.33591e-06
1.33595e-06
1.33488e-06
1.33433e-06
1.33251e-06
1.33251e-06
1.33251e-06
1.33446e-06
1.33486e-06
1.33586e-06
1.33488e-06
1.3343e-06
1.33251e-06
1.33252e-06
1.33252e-06
1.33252e-06
1.33251e-06
1.33443e-06
1.33486e-06
1.33586e-06
1.33589e-06
1.33433e-06
1.33251e-06
1.33252e-06
1.33253e-06
1.33253e-06
1.33253e-06
1.33252e-06
1.33251e-06
1.33445e-06
1.33494e-06
1.33595e-06
1.33472e-06
1.33251e-06
1.33252e-06
1.33253e-06
1.33254e-06
1.33254e-06
1.33254e-06
1.33253e-06
1.33252e-06
1.33251e-06
1.33492e-06
1.33603e-06
1.33464e-06
1.33251e-06
1.33252e-06
1.33253e-06
1.33254e-06
1.33254e-06
1.33254e-06
1.33253e-06
1.33252e-06
1.33251e-06
1.33489e-06
1.33601e-06
1.33469e-06
1.33251e-06
1.33252e-06
1.33253e-06
1.33254e-06
1.33254e-06
1.33254e-06
1.33253e-06
1.33252e-06
1.33251e-06
1.33491e-06
1.33601e-06
1.33581e-06
1.33446e-06
1.33251e-06
1.33252e-06
1.33253e-06
1.33253e-06
1.33253e-06
1.33252e-06
1.33251e-06
1.33462e-06
1.33496e-06
1.33605e-06
1.33591e-06
1.33486e-06
1.33443e-06
1.33251e-06
1.33252e-06
1.33252e-06
1.33252e-06
1.33252e-06
1.33458e-06
1.33485e-06
1.33504e-06
1.33586e-06
1.33486e-06
1.33445e-06
1.33251e-06
1.33251e-06
1.33251e-06
1.33462e-06
1.33485e-06
1.33502e-06
1.33604e-06
1.33586e-06
1.33494e-06
1.33492e-06
1.33489e-06
1.33491e-06
1.33496e-06
1.33504e-06
1.33604e-06
1.33595e-06
1.33603e-06
1.33601e-06
1.33601e-06
1.33605e-06
1.32406e-06
1.32289e-06
1.32281e-06
1.32287e-06
1.32398e-06
1.32409e-06
1.32412e-06
1.32306e-06
1.3225e-06
1.32068e-06
1.32068e-06
1.32068e-06
1.32263e-06
1.32304e-06
1.32403e-06
1.32306e-06
1.32247e-06
1.32068e-06
1.32069e-06
1.32069e-06
1.32069e-06
1.32068e-06
1.3226e-06
1.32303e-06
1.32404e-06
1.32406e-06
1.3225e-06
1.32068e-06
1.32069e-06
1.32069e-06
1.32069e-06
1.32069e-06
1.32069e-06
1.32068e-06
1.32263e-06
1.32312e-06
1.32413e-06
1.32289e-06
1.32068e-06
1.32069e-06
1.32069e-06
1.3207e-06
1.3207e-06
1.3207e-06
1.32069e-06
1.32069e-06
1.32068e-06
1.3231e-06
1.3242e-06
1.32281e-06
1.32068e-06
1.32069e-06
1.32069e-06
1.3207e-06
1.3207e-06
1.3207e-06
1.32069e-06
1.32069e-06
1.32068e-06
1.32307e-06
1.32418e-06
1.32287e-06
1.32068e-06
1.32069e-06
1.32069e-06
1.3207e-06
1.3207e-06
1.3207e-06
1.32069e-06
1.32069e-06
1.32068e-06
1.32308e-06
1.32418e-06
1.32398e-06
1.32263e-06
1.32068e-06
1.32069e-06
1.32069e-06
1.32069e-06
1.32069e-06
1.32069e-06
1.32068e-06
1.32279e-06
1.32313e-06
1.32422e-06
1.32409e-06
1.32304e-06
1.3226e-06
1.32068e-06
1.32069e-06
1.32069e-06
1.32069e-06
1.32068e-06
1.32275e-06
1.32302e-06
1.32322e-06
1.32403e-06
1.32303e-06
1.32263e-06
1.32068e-06
1.32068e-06
1.32068e-06
1.32279e-06
1.32302e-06
1.32319e-06
1.32422e-06
1.32404e-06
1.32312e-06
1.3231e-06
1.32307e-06
1.32308e-06
1.32313e-06
1.32322e-06
1.32422e-06
1.32413e-06
1.3242e-06
1.32418e-06
1.32418e-06
1.32422e-06
1.31224e-06
1.31107e-06
1.31099e-06
1.31104e-06
1.31216e-06
1.31226e-06
1.3123e-06
1.31123e-06
1.31068e-06
1.30886e-06
1.30886e-06
1.30886e-06
1.31081e-06
1.31121e-06
1.3122e-06
1.31123e-06
1.31065e-06
1.30886e-06
1.30886e-06
1.30886e-06
1.30886e-06
1.30886e-06
1.31078e-06
1.3112e-06
1.31221e-06
1.31224e-06
1.31068e-06
1.30886e-06
1.30886e-06
1.30886e-06
1.30886e-06
1.30886e-06
1.30886e-06
1.30886e-06
1.3108e-06
1.31129e-06
1.3123e-06
1.31107e-06
1.30886e-06
1.30886e-06
1.30886e-06
1.30886e-06
1.30886e-06
1.30886e-06
1.30886e-06
1.30886e-06
1.30886e-06
1.31127e-06
1.31238e-06
1.31099e-06
1.30886e-06
1.30886e-06
1.30886e-06
1.30886e-06
1.30887e-06
1.30886e-06
1.30886e-06
1.30886e-06
1.30886e-06
1.31124e-06
1.31235e-06
1.31104e-06
1.30886e-06
1.30886e-06
1.30886e-06
1.30886e-06
1.30886e-06
1.30886e-06
1.30886e-06
1.30886e-06
1.30886e-06
1.31126e-06
1.31236e-06
1.31216e-06
1.31081e-06
1.30886e-06
1.30886e-06
1.30886e-06
1.30886e-06
1.30886e-06
1.30886e-06
1.30886e-06
1.31097e-06
1.31131e-06
1.3124e-06
1.31226e-06
1.31121e-06
1.31078e-06
1.30886e-06
1.30886e-06
1.30886e-06
1.30886e-06
1.30886e-06
1.31093e-06
1.3112e-06
1.31139e-06
1.3122e-06
1.3112e-06
1.3108e-06
1.30886e-06
1.30886e-06
1.30886e-06
1.31097e-06
1.3112e-06
1.31137e-06
1.31239e-06
1.31221e-06
1.31129e-06
1.31127e-06
1.31124e-06
1.31126e-06
1.31131e-06
1.31139e-06
1.31239e-06
1.3123e-06
1.31238e-06
1.31235e-06
1.31236e-06
1.3124e-06
1.30041e-06
1.29924e-06
1.29916e-06
1.29921e-06
1.30033e-06
1.30043e-06
1.30047e-06
1.29941e-06
1.29885e-06
1.29703e-06
1.29703e-06
1.29703e-06
1.29898e-06
1.29938e-06
1.30038e-06
1.29941e-06
1.29882e-06
1.29703e-06
1.29703e-06
1.29703e-06
1.29703e-06
1.29703e-06
1.29895e-06
1.29938e-06
1.30038e-06
1.30041e-06
1.29885e-06
1.29703e-06
1.29703e-06
1.29703e-06
1.29703e-06
1.29703e-06
1.29703e-06
1.29703e-06
1.29897e-06
1.29947e-06
1.30047e-06
1.29924e-06
1.29703e-06
1.29703e-06
1.29703e-06
1.29703e-06
1.29703e-06
1.29703e-06
1.29703e-06
1.29703e-06
1.29703e-06
1.29945e-06
1.30055e-06
1.29916e-06
1.29703e-06
1.29703e-06
1.29703e-06
1.29703e-06
1.29703e-06
1.29703e-06
1.29703e-06
1.29703e-06
1.29703e-06
1.29941e-06
1.30053e-06
1.29921e-06
1.29703e-06
1.29703e-06
1.29703e-06
1.29703e-06
1.29703e-06
1.29703e-06
1.29703e-06
1.29703e-06
1.29703e-06
1.29943e-06
1.30053e-06
1.30033e-06
1.29898e-06
1.29703e-06
1.29703e-06
1.29703e-06
1.29703e-06
1.29703e-06
1.29703e-06
1.29703e-06
1.29914e-06
1.29948e-06
1.30057e-06
1.30043e-06
1.29938e-06
1.29895e-06
1.29703e-06
1.29703e-06
1.29703e-06
1.29703e-06
1.29703e-06
1.2991e-06
1.29937e-06
1.29957e-06
1.30038e-06
1.29938e-06
1.29897e-06
1.29703e-06
1.29703e-06
1.29703e-06
1.29914e-06
1.29937e-06
1.29954e-06
1.30057e-06
1.30038e-06
1.29947e-06
1.29945e-06
1.29941e-06
1.29943e-06
1.29948e-06
1.29957e-06
1.30057e-06
1.30047e-06
1.30055e-06
1.30053e-06
1.30053e-06
1.30057e-06
1.28859e-06
1.28742e-06
1.28734e-06
1.28739e-06
1.28851e-06
1.28861e-06
1.28864e-06
1.28758e-06
1.28702e-06
1.2852e-06
1.2852e-06
1.2852e-06
1.28715e-06
1.28756e-06
1.28855e-06
1.28758e-06
1.28699e-06
1.2852e-06
1.2852e-06
1.2852e-06
1.2852e-06
1.2852e-06
1.28712e-06
1.28755e-06
1.28856e-06
1.28858e-06
1.28702e-06
1.2852e-06
1.2852e-06
1.2852e-06
1.2852e-06
1.2852e-06
1.2852e-06
1.2852e-06
1.28715e-06
1.28764e-06
1.28865e-06
1.28742e-06
1.2852e-06
1.2852e-06
1.2852e-06
1.2852e-06
1.2852e-06
1.2852e-06
1.2852e-06
1.2852e-06
1.2852e-06
1.28762e-06
1.28873e-06
1.28734e-06
1.2852e-06
1.2852e-06
1.2852e-06
1.2852e-06
1.28521e-06
1.2852e-06
1.2852e-06
1.2852e-06
1.2852e-06
1.28759e-06
1.2887e-06
1.28739e-06
1.2852e-06
1.2852e-06
1.2852e-06
1.2852e-06
1.2852e-06
1.2852e-06
1.2852e-06
1.2852e-06
1.2852e-06
1.2876e-06
1.28871e-06
1.28851e-06
1.28715e-06
1.2852e-06
1.2852e-06
1.2852e-06
1.2852e-06
1.2852e-06
1.2852e-06
1.2852e-06
1.28731e-06
1.28765e-06
1.28875e-06
1.28861e-06
1.28756e-06
1.28712e-06
1.2852e-06
1.2852e-06
1.2852e-06
1.2852e-06
1.2852e-06
1.28727e-06
1.28755e-06
1.28774e-06
1.28855e-06
1.28755e-06
1.28715e-06
1.2852e-06
1.2852e-06
1.2852e-06
1.28731e-06
1.28755e-06
1.28771e-06
1.28874e-06
1.28856e-06
1.28764e-06
1.28762e-06
1.28759e-06
1.2876e-06
1.28765e-06
1.28774e-06
1.28874e-06
1.28865e-06
1.28873e-06
1.2887e-06
1.28871e-06
1.28875e-06
1.27676e-06
1.27559e-06
1.27551e-06
1.27556e-06
1.27668e-06
1.27678e-06
1.27682e-06
1.27575e-06
1.2752e-06
1.27338e-06
1.27338e-06
1.27338e-06
1.27533e-06
1.27573e-06
1.27673e-06
1.27575e-06
1.27517e-06
1.27338e-06
1.27338e-06
1.27338e-06
1.27338e-06
1.27338e-06
1.2753e-06
1.27573e-06
1.27673e-06
1.27676e-06
1.2752e-06
1.27338e-06
1.27338e-06
1.27338e-06
1.27338e-06
1.27338e-06
1.27338e-06
1.27338e-06
1.27532e-06
1.27581e-06
1.27682e-06
1.27559e-06
1.27338e-06
1.27338e-06
1.27338e-06
1.27338e-06
1.27338e-06
1.27338e-06
1.27338e-06
1.27338e-06
1.27338e-06
1.27579e-06
1.2769e-06
1.27551e-06
1.27338e-06
1.27338e-06
1.27338e-06
1.27338e-06
1.27338e-06
1.27338e-06
1.27338e-06
1.27338e-06
1.27338e-06
1.27576e-06
1.27688e-06
1.27556e-06
1.27338e-06
1.27338e-06
1.27338e-06
1.27338e-06
1.27338e-06
1.27338e-06
1.27338e-06
1.27338e-06
1.27338e-06
1.27578e-06
1.27688e-06
1.27668e-06
1.27533e-06
1.27338e-06
1.27338e-06
1.27338e-06
1.27338e-06
1.27338e-06
1.27338e-06
1.27338e-06
1.27549e-06
1.27583e-06
1.27692e-06
1.27678e-06
1.27573e-06
1.2753e-06
1.27338e-06
1.27338e-06
1.27338e-06
1.27338e-06
1.27338e-06
1.27545e-06
1.27572e-06
1.27592e-06
1.27673e-06
1.27573e-06
1.27532e-06
1.27338e-06
1.27338e-06
1.27338e-06
1.27549e-06
1.27572e-06
1.27589e-06
1.27692e-06
1.27673e-06
1.27581e-06
1.27579e-06
1.27576e-06
1.27578e-06
1.27583e-06
1.27592e-06
1.27692e-06
1.27682e-06
1.2769e-06
1.27688e-06
1.27688e-06
1.27692e-06
1.26493e-06
1.26376e-06
1.26368e-06
1.26373e-06
1.26485e-06
1.26496e-06
1.26499e-06
1.26393e-06
1.26337e-06
1.26155e-06
1.26155e-06
1.26155e-06
1.2635e-06
1.2639e-06
1.2649e-06
1.26393e-06
1.26334e-06
1.26155e-06
1.26155e-06
1.26155e-06
1.26155e-06
1.26155e-06
1.26347e-06
1.2639e-06
1.26491e-06
1.26493e-06
1.26337e-06
1.26155e-06
1.26155e-06
1.26155e-06
1.26155e-06
1.26155e-06
1.26155e-06
1.26155e-06
1.26349e-06
1.26399e-06
1.265e-06
1.26376e-06
1.26155e-06
1.26155e-06
1.26155e-06
1.26155e-06
1.26155e-06
1.26155e-06
1.26155e-06
1.26155e-06
1.26155e-06
1.26397e-06
1.26507e-06
1.26368e-06
1.26155e-06
1.26155e-06
1.26155e-06
1.26155e-06
1.26155e-06
1.26155e-06
1.26155e-06
1.26155e-06
1.26155e-06
1.26394e-06
1.26505e-06
1.26373e-06
1.26155e-06
1.26155e-06
1.26155e-06
1.26155e-06
1.26155e-06
1.26155e-06
1.26155e-06
1.26155e-06
1.26155e-06
1.26395e-06
1.26505e-06
1.26485e-06
1.2635e-06
1.26155e-06
1.26155e-06
1.26155e-06
1.26155e-06
1.26155e-06
1.26155e-06
1.26155e-06
1.26366e-06
1.264e-06
1.26509e-06
1.26496e-06
1.26391e-06
1.26347e-06
1.26155e-06
1.26155e-06
1.26155e-06
1.26155e-06
1.26155e-06
1.26362e-06
1.26389e-06
1.26409e-06
1.2649e-06
1.2639e-06
1.26349e-06
1.26155e-06
1.26155e-06
1.26155e-06
1.26366e-06
1.26389e-06
1.26406e-06
1.26509e-06
1.26491e-06
1.26399e-06
1.26397e-06
1.26394e-06
1.26395e-06
1.264e-06
1.26409e-06
1.26509e-06
1.265e-06
1.26507e-06
1.26505e-06
1.26505e-06
1.26509e-06
1.25311e-06
1.25194e-06
1.25186e-06
1.25191e-06
1.25303e-06
1.25313e-06
1.25316e-06
1.2521e-06
1.25154e-06
1.24972e-06
1.24972e-06
1.24972e-06
1.25167e-06
1.25208e-06
1.25307e-06
1.2521e-06
1.25151e-06
1.24972e-06
1.24972e-06
1.24972e-06
1.24972e-06
1.24972e-06
1.25164e-06
1.25207e-06
1.25308e-06
1.25311e-06
1.25154e-06
1.24972e-06
1.24972e-06
1.24972e-06
1.24972e-06
1.24972e-06
1.24972e-06
1.24972e-06
1.25167e-06
1.25216e-06
1.25317e-06
1.25194e-06
1.24972e-06
1.24972e-06
1.24972e-06
1.24972e-06
1.24972e-06
1.24972e-06
1.24972e-06
1.24972e-06
1.24972e-06
1.25214e-06
1.25325e-06
1.25186e-06
1.24972e-06
1.24972e-06
1.24972e-06
1.24972e-06
1.24972e-06
1.24972e-06
1.24972e-06
1.24972e-06
1.24972e-06
1.25211e-06
1.25322e-06
1.25191e-06
1.24972e-06
1.24972e-06
1.24972e-06
1.24972e-06
1.24972e-06
1.24972e-06
1.24972e-06
1.24972e-06
1.24972e-06
1.25212e-06
1.25323e-06
1.25303e-06
1.25167e-06
1.24972e-06
1.24972e-06
1.24972e-06
1.24972e-06
1.24972e-06
1.24972e-06
1.24972e-06
1.25183e-06
1.25217e-06
1.25327e-06
1.25313e-06
1.25208e-06
1.25164e-06
1.24972e-06
1.24972e-06
1.24972e-06
1.24972e-06
1.24972e-06
1.25179e-06
1.25207e-06
1.25226e-06
1.25307e-06
1.25207e-06
1.25167e-06
1.24972e-06
1.24972e-06
1.24972e-06
1.25183e-06
1.25207e-06
1.25223e-06
1.25326e-06
1.25308e-06
1.25216e-06
1.25214e-06
1.25211e-06
1.25212e-06
1.25217e-06
1.25226e-06
1.25326e-06
1.25317e-06
1.25325e-06
1.25322e-06
1.25323e-06
1.25327e-06
1.24128e-06
1.24011e-06
1.24003e-06
1.24008e-06
1.2412e-06
1.2413e-06
1.24134e-06
1.24028e-06
1.23972e-06
1.2379e-06
1.2379e-06
1.2379e-06
1.23985e-06
1.24025e-06
1.24125e-06
1.24028e-06
1.23969e-06
1.2379e-06
1.2379e-06
1.2379e-06
1.2379e-06
1.2379e-06
1.23982e-06
1.24025e-06
1.24125e-06
1.24128e-06
1.23972e-06
1.2379e-06
1.2379e-06
1.2379e-06
1.2379e-06
1.2379e-06
1.2379e-06
1.2379e-06
1.23984e-06
1.24033e-06
1.24134e-06
1.24011e-06
1.2379e-06
1.2379e-06
1.2379e-06
1.2379e-06
1.2379e-06
1.2379e-06
1.2379e-06
1.2379e-06
1.2379e-06
1.24032e-06
1.24142e-06
1.24003e-06
1.2379e-06
1.2379e-06
1.2379e-06
1.2379e-06
1.2379e-06
1.2379e-06
1.2379e-06
1.2379e-06
1.2379e-06
1.24028e-06
1.2414e-06
1.24008e-06
1.2379e-06
1.2379e-06
1.2379e-06
1.2379e-06
1.2379e-06
1.2379e-06
1.2379e-06
1.2379e-06
1.2379e-06
1.2403e-06
1.2414e-06
1.2412e-06
1.23985e-06
1.2379e-06
1.2379e-06
1.2379e-06
1.2379e-06
1.2379e-06
1.2379e-06
1.2379e-06
1.24001e-06
1.24035e-06
1.24144e-06
1.2413e-06
1.24025e-06
1.23982e-06
1.2379e-06
1.2379e-06
1.2379e-06
1.2379e-06
1.2379e-06
1.23997e-06
1.24024e-06
1.24044e-06
1.24125e-06
1.24025e-06
1.23984e-06
1.2379e-06
1.2379e-06
1.2379e-06
1.24001e-06
1.24024e-06
1.24041e-06
1.24144e-06
1.24125e-06
1.24033e-06
1.24032e-06
1.24028e-06
1.2403e-06
1.24035e-06
1.24044e-06
1.24144e-06
1.24134e-06
1.24142e-06
1.2414e-06
1.2414e-06
1.24144e-06
1.22945e-06
1.22829e-06
1.2282e-06
1.22826e-06
1.22937e-06
1.22948e-06
1.22951e-06
1.22845e-06
1.22789e-06
1.22607e-06
1.22607e-06
1.22607e-06
1.22802e-06
1.22843e-06
1.22942e-06
1.22845e-06
1.22786e-06
1.22607e-06
1.22607e-06
1.22607e-06
1.22607e-06
1.22607e-06
1.22799e-06
1.22842e-06
1.22943e-06
1.22945e-06
1.22789e-06
1.22607e-06
1.22607e-06
1.22607e-06
1.22607e-06
1.22607e-06
1.22607e-06
1.22607e-06
1.22801e-06
1.22851e-06
1.22952e-06
1.22829e-06
1.22607e-06
1.22607e-06
1.22607e-06
1.22607e-06
1.22607e-06
1.22607e-06
1.22607e-06
1.22607e-06
1.22607e-06
1.22849e-06
1.22959e-06
1.2282e-06
1.22607e-06
1.22607e-06
1.22607e-06
1.22607e-06
1.22607e-06
1.22607e-06
1.22607e-06
1.22607e-06
1.22607e-06
1.22846e-06
1.22957e-06
1.22826e-06
1.22607e-06
1.22607e-06
1.22607e-06
1.22607e-06
1.22607e-06
1.22607e-06
1.22607e-06
1.22607e-06
1.22607e-06
1.22847e-06
1.22957e-06
1.22937e-06
1.22802e-06
1.22607e-06
1.22607e-06
1.22607e-06
1.22607e-06
1.22607e-06
1.22607e-06
1.22607e-06
1.22818e-06
1.22852e-06
1.22961e-06
1.22948e-06
1.22843e-06
1.22799e-06
1.22607e-06
1.22607e-06
1.22607e-06
1.22607e-06
1.22607e-06
1.22814e-06
1.22841e-06
1.22861e-06
1.22942e-06
1.22842e-06
1.22801e-06
1.22607e-06
1.22607e-06
1.22607e-06
1.22818e-06
1.22841e-06
1.22858e-06
1.22961e-06
1.22943e-06
1.22851e-06
1.22849e-06
1.22846e-06
1.22847e-06
1.22852e-06
1.22861e-06
1.22961e-06
1.22952e-06
1.22959e-06
1.22957e-06
1.22957e-06
1.22961e-06
1.21763e-06
1.21646e-06
1.21638e-06
1.21643e-06
1.21755e-06
1.21765e-06
1.21769e-06
1.21662e-06
1.21607e-06
1.21424e-06
1.21424e-06
1.21424e-06
1.21619e-06
1.2166e-06
1.21759e-06
1.21662e-06
1.21603e-06
1.21424e-06
1.21425e-06
1.21424e-06
1.21425e-06
1.21424e-06
1.21617e-06
1.2166e-06
1.2176e-06
1.21763e-06
1.21607e-06
1.21424e-06
1.21425e-06
1.21424e-06
1.21424e-06
1.21424e-06
1.21425e-06
1.21424e-06
1.21619e-06
1.21668e-06
1.21769e-06
1.21646e-06
1.21424e-06
1.21425e-06
1.21424e-06
1.21425e-06
1.21424e-06
1.21425e-06
1.21424e-06
1.21425e-06
1.21424e-06
1.21666e-06
1.21777e-06
1.21638e-06
1.21424e-06
1.21424e-06
1.21425e-06
1.21424e-06
1.21424e-06
1.21424e-06
1.21424e-06
1.21424e-06
1.21424e-06
1.21663e-06
1.21775e-06
1.21643e-06
1.21424e-06
1.21425e-06
1.21424e-06
1.21425e-06
1.21424e-06
1.21425e-06
1.21424e-06
1.21425e-06
1.21424e-06
1.21664e-06
1.21775e-06
1.21755e-06
1.21619e-06
1.21424e-06
1.21425e-06
1.21424e-06
1.21424e-06
1.21424e-06
1.21425e-06
1.21424e-06
1.21635e-06
1.2167e-06
1.21779e-06
1.21765e-06
1.2166e-06
1.21617e-06
1.21424e-06
1.21425e-06
1.21424e-06
1.21425e-06
1.21424e-06
1.21632e-06
1.21659e-06
1.21678e-06
1.21759e-06
1.2166e-06
1.21619e-06
1.21424e-06
1.21424e-06
1.21424e-06
1.21635e-06
1.21659e-06
1.21676e-06
1.21778e-06
1.2176e-06
1.21668e-06
1.21666e-06
1.21663e-06
1.21664e-06
1.2167e-06
1.21678e-06
1.21778e-06
1.21769e-06
1.21777e-06
1.21775e-06
1.21775e-06
1.21779e-06
1.2058e-06
1.20463e-06
1.20455e-06
1.2046e-06
1.20572e-06
1.20582e-06
1.20586e-06
1.2048e-06
1.20424e-06
1.20242e-06
1.20242e-06
1.20242e-06
1.20437e-06
1.20477e-06
1.20577e-06
1.2048e-06
1.20421e-06
1.20242e-06
1.20242e-06
1.20242e-06
1.20242e-06
1.20242e-06
1.20434e-06
1.20477e-06
1.20577e-06
1.2058e-06
1.20424e-06
1.20242e-06
1.20242e-06
1.20242e-06
1.20242e-06
1.20242e-06
1.20242e-06
1.20242e-06
1.20436e-06
1.20486e-06
1.20586e-06
1.20463e-06
1.20242e-06
1.20242e-06
1.20242e-06
1.20242e-06
1.20242e-06
1.20242e-06
1.20242e-06
1.20242e-06
1.20242e-06
1.20484e-06
1.20594e-06
1.20455e-06
1.20242e-06
1.20242e-06
1.20242e-06
1.20242e-06
1.20242e-06
1.20242e-06
1.20242e-06
1.20242e-06
1.20242e-06
1.2048e-06
1.20592e-06
1.2046e-06
1.20242e-06
1.20242e-06
1.20242e-06
1.20242e-06
1.20242e-06
1.20242e-06
1.20242e-06
1.20242e-06
1.20242e-06
1.20482e-06
1.20592e-06
1.20572e-06
1.20437e-06
1.20242e-06
1.20242e-06
1.20242e-06
1.20242e-06
1.20242e-06
1.20242e-06
1.20242e-06
1.20453e-06
1.20487e-06
1.20596e-06
1.20582e-06
1.20477e-06
1.20434e-06
1.20242e-06
1.20242e-06
1.20242e-06
1.20242e-06
1.20242e-06
1.20449e-06
1.20476e-06
1.20496e-06
1.20577e-06
1.20477e-06
1.20436e-06
1.20242e-06
1.20242e-06
1.20242e-06
1.20453e-06
1.20476e-06
1.20493e-06
1.20596e-06
1.20577e-06
1.20486e-06
1.20484e-06
1.2048e-06
1.20482e-06
1.20487e-06
1.20496e-06
1.20596e-06
1.20586e-06
1.20594e-06
1.20592e-06
1.20592e-06
1.20596e-06
1.19398e-06
1.19281e-06
1.19273e-06
1.19278e-06
1.1939e-06
1.194e-06
1.19403e-06
1.19297e-06
1.19241e-06
1.19059e-06
1.19059e-06
1.19059e-06
1.19254e-06
1.19295e-06
1.19394e-06
1.19297e-06
1.19238e-06
1.19059e-06
1.19059e-06
1.19059e-06
1.19059e-06
1.19059e-06
1.19251e-06
1.19294e-06
1.19395e-06
1.19398e-06
1.19241e-06
1.19059e-06
1.19059e-06
1.19059e-06
1.19059e-06
1.19059e-06
1.19059e-06
1.19059e-06
1.19254e-06
1.19303e-06
1.19404e-06
1.19281e-06
1.19059e-06
1.19059e-06
1.19059e-06
1.19059e-06
1.19059e-06
1.19059e-06
1.19059e-06
1.19059e-06
1.19059e-06
1.19301e-06
1.19412e-06
1.19273e-06
1.19059e-06
1.19059e-06
1.19059e-06
1.19059e-06
1.19059e-06
1.19059e-06
1.19059e-06
1.19059e-06
1.19059e-06
1.19298e-06
1.19409e-06
1.19278e-06
1.19059e-06
1.19059e-06
1.19059e-06
1.19059e-06
1.19059e-06
1.19059e-06
1.19059e-06
1.19059e-06
1.19059e-06
1.19299e-06
1.1941e-06
1.1939e-06
1.19254e-06
1.19059e-06
1.19059e-06
1.19059e-06
1.19059e-06
1.19059e-06
1.19059e-06
1.19059e-06
1.1927e-06
1.19304e-06
1.19414e-06
1.194e-06
1.19295e-06
1.19251e-06
1.19059e-06
1.19059e-06
1.19059e-06
1.19059e-06
1.19059e-06
1.19266e-06
1.19294e-06
1.19313e-06
1.19394e-06
1.19294e-06
1.19254e-06
1.19059e-06
1.19059e-06
1.19059e-06
1.1927e-06
1.19294e-06
1.1931e-06
1.19413e-06
1.19395e-06
1.19303e-06
1.19301e-06
1.19298e-06
1.19299e-06
1.19304e-06
1.19313e-06
1.19413e-06
1.19404e-06
1.19412e-06
1.19409e-06
1.1941e-06
1.19414e-06
1.18215e-06
1.18098e-06
1.1809e-06
1.18095e-06
1.18207e-06
1.18217e-06
1.18221e-06
1.18114e-06
1.18059e-06
1.17877e-06
1.17877e-06
1.17877e-06
1.18072e-06
1.18112e-06
1.18212e-06
1.18114e-06
1.18056e-06
1.17877e-06
1.17877e-06
1.17877e-06
1.17877e-06
1.17877e-06
1.18069e-06
1.18112e-06
1.18212e-06
1.18215e-06
1.18059e-06
1.17877e-06
1.17877e-06
1.17877e-06
1.17877e-06
1.17877e-06
1.17877e-06
1.17877e-06
1.18071e-06
1.1812e-06
1.18221e-06
1.18098e-06
1.17877e-06
1.17877e-06
1.17877e-06
1.17877e-06
1.17877e-06
1.17877e-06
1.17877e-06
1.17877e-06
1.17877e-06
1.18118e-06
1.18229e-06
1.1809e-06
1.17877e-06
1.17877e-06
1.17877e-06
1.17877e-06
1.17877e-06
1.17877e-06
1.17877e-06
1.17877e-06
1.17877e-06
1.18115e-06
1.18227e-06
1.18095e-06
1.17877e-06
1.17877e-06
1.17877e-06
1.17877e-06
1.17877e-06
1.17877e-06
1.17877e-06
1.17877e-06
1.17877e-06
1.18117e-06
1.18227e-06
1.18207e-06
1.18072e-06
1.17877e-06
1.17877e-06
1.17877e-06
1.17877e-06
1.17877e-06
1.17877e-06
1.17877e-06
1.18088e-06
1.18122e-06
1.18231e-06
1.18217e-06
1.18112e-06
1.18069e-06
1.17877e-06
1.17877e-06
1.17877e-06
1.17877e-06
1.17877e-06
1.18084e-06
1.18111e-06
1.18131e-06
1.18212e-06
1.18112e-06
1.18071e-06
1.17877e-06
1.17877e-06
1.17877e-06
1.18088e-06
1.18111e-06
1.18128e-06
1.18231e-06
1.18212e-06
1.1812e-06
1.18118e-06
1.18115e-06
1.18117e-06
1.18122e-06
1.18131e-06
1.18231e-06
1.18221e-06
1.18229e-06
1.18227e-06
1.18227e-06
1.18231e-06
1.17032e-06
1.16915e-06
1.16907e-06
1.16912e-06
1.17024e-06
1.17035e-06
1.17038e-06
1.16932e-06
1.16876e-06
1.16694e-06
1.16694e-06
1.16694e-06
1.16889e-06
1.1693e-06
1.17029e-06
1.16932e-06
1.16873e-06
1.16694e-06
1.16694e-06
1.16694e-06
1.16694e-06
1.16694e-06
1.16886e-06
1.16929e-06
1.1703e-06
1.17032e-06
1.16876e-06
1.16694e-06
1.16694e-06
1.16694e-06
1.16694e-06
1.16694e-06
1.16694e-06
1.16694e-06
1.16888e-06
1.16938e-06
1.17039e-06
1.16915e-06
1.16694e-06
1.16694e-06
1.16694e-06
1.16694e-06
1.16694e-06
1.16694e-06
1.16694e-06
1.16694e-06
1.16694e-06
1.16936e-06
1.17046e-06
1.16907e-06
1.16694e-06
1.16694e-06
1.16694e-06
1.16694e-06
1.16694e-06
1.16694e-06
1.16694e-06
1.16694e-06
1.16694e-06
1.16933e-06
1.17044e-06
1.16912e-06
1.16694e-06
1.16694e-06
1.16694e-06
1.16694e-06
1.16694e-06
1.16694e-06
1.16694e-06
1.16694e-06
1.16694e-06