/*--------------------------------*- C++ -*----------------------------------*\
| =========                 |                                                 |
| \\      /  F ield         | OpenFOAM: The Open Source CFD Toolbox           |
|  \\    /   O peration     | Version:  v2012                                 |
|   \\  /    A nd           | Website:  www.openfoam.com                      |
|    \\/     M anipulation  |                                                 |
\*---------------------------------------------------------------------------*/
FoamFile
{
    version     2.0;
    format      ascii;
    class       volScalarField;
    location    "2";
    object      p;
}
// * * * * * * * * * * * * * * * * * * * * * * * * * * * * * * * * * * * * * //

dimensions      [0 2 -2 0 0 0 0];


internalField   nonuniform List<scalar> 
292667
(
2.1662e-06
2.13339e-06
2.13078e-06
2.13088e-06
2.13495e-06
2.16723e-06
2.13527e-06
2.12643e-06
2.12193e-06
2.12021e-06
2.12043e-06
2.12276e-06
2.12817e-06
2.13836e-06
2.13525e-06
2.12458e-06
2.11885e-06
2.11586e-06
2.11464e-06
2.11481e-06
2.11642e-06
2.11998e-06
2.12671e-06
2.13915e-06
2.16625e-06
2.12643e-06
2.11885e-06
2.11469e-06
2.11243e-06
2.11147e-06
2.1116e-06
2.11286e-06
2.11552e-06
2.12034e-06
2.12922e-06
2.17101e-06
2.1334e-06
2.12193e-06
2.11586e-06
2.11243e-06
2.11052e-06
2.1097e-06
2.10981e-06
2.11088e-06
2.11312e-06
2.11706e-06
2.12414e-06
2.14609e-06
2.13078e-06
2.12021e-06
2.11464e-06
2.11147e-06
2.1097e-06
2.10893e-06
2.10904e-06
2.11004e-06
2.11211e-06
2.11574e-06
2.12222e-06
2.13987e-06
2.13088e-06
2.12043e-06
2.11481e-06
2.1116e-06
2.10981e-06
2.10904e-06
2.10915e-06
2.11015e-06
2.11225e-06
2.11592e-06
2.12246e-06
2.13924e-06
2.13495e-06
2.12276e-06
2.11642e-06
2.11286e-06
2.11088e-06
2.11004e-06
2.11015e-06
2.11126e-06
2.11357e-06
2.11766e-06
2.12507e-06
2.14738e-06
2.16723e-06
2.12817e-06
2.11998e-06
2.11552e-06
2.11312e-06
2.11211e-06
2.11225e-06
2.11357e-06
2.11639e-06
2.12157e-06
2.13111e-06
2.17264e-06
2.13836e-06
2.12671e-06
2.12034e-06
2.11706e-06
2.11573e-06
2.11591e-06
2.11766e-06
2.12157e-06
2.129e-06
2.14864e-06
2.13915e-06
2.12922e-06
2.12414e-06
2.12222e-06
2.12246e-06
2.12506e-06
2.1311e-06
2.14862e-06
2.171e-06
2.14609e-06
2.13987e-06
2.13923e-06
2.14738e-06
2.17263e-06
2.09467e-06
2.09259e-06
2.09254e-06
2.09257e-06
2.09417e-06
2.09449e-06
2.09466e-06
2.093e-06
2.0924e-06
2.08972e-06
2.08969e-06
2.08972e-06
2.09203e-06
2.09274e-06
2.09428e-06
2.093e-06
2.09233e-06
2.08953e-06
2.08962e-06
2.08964e-06
2.08962e-06
2.08953e-06
2.09187e-06
2.09272e-06
2.09429e-06
2.09467e-06
2.0924e-06
2.08953e-06
2.08956e-06
2.08959e-06
2.08959e-06
2.08958e-06
2.08956e-06
2.08953e-06
2.09191e-06
2.0928e-06
2.09482e-06
2.09259e-06
2.08972e-06
2.08962e-06
2.08959e-06
2.08957e-06
2.08956e-06
2.08957e-06
2.08959e-06
2.08962e-06
2.08973e-06
2.09244e-06
2.09425e-06
2.09254e-06
2.08968e-06
2.08963e-06
2.08959e-06
2.08956e-06
2.08955e-06
2.08956e-06
2.08959e-06
2.08964e-06
2.08969e-06
2.0922e-06
2.09398e-06
2.09257e-06
2.08972e-06
2.08962e-06
2.08958e-06
2.08957e-06
2.08956e-06
2.08957e-06
2.08959e-06
2.08962e-06
2.08972e-06
2.09231e-06
2.09399e-06
2.09417e-06
2.09203e-06
2.08953e-06
2.08956e-06
2.08959e-06
2.08959e-06
2.08959e-06
2.08956e-06
2.08953e-06
2.09152e-06
2.09262e-06
2.09448e-06
2.09449e-06
2.09274e-06
2.09187e-06
2.08953e-06
2.08963e-06
2.08964e-06
2.08962e-06
2.08953e-06
2.09142e-06
2.09238e-06
2.09297e-06
2.09428e-06
2.09272e-06
2.09191e-06
2.08973e-06
2.08969e-06
2.08973e-06
2.09152e-06
2.09238e-06
2.09298e-06
2.09455e-06
2.09429e-06
2.0928e-06
2.09244e-06
2.0922e-06
2.09231e-06
2.09262e-06
2.09297e-06
2.09455e-06
2.09482e-06
2.09425e-06
2.09398e-06
2.09399e-06
2.09448e-06
2.07678e-06
2.07495e-06
2.07486e-06
2.07494e-06
2.07646e-06
2.07678e-06
2.07695e-06
2.07526e-06
2.07463e-06
2.07172e-06
2.07173e-06
2.07172e-06
2.07433e-06
2.075e-06
2.07661e-06
2.07525e-06
2.0746e-06
2.07182e-06
2.07176e-06
2.07174e-06
2.07175e-06
2.0718e-06
2.07421e-06
2.075e-06
2.0766e-06
2.07677e-06
2.07463e-06
2.07182e-06
2.07178e-06
2.07176e-06
2.07175e-06
2.07176e-06
2.07178e-06
2.07183e-06
2.07423e-06
2.07505e-06
2.07685e-06
2.07495e-06
2.07172e-06
2.07176e-06
2.07176e-06
2.07175e-06
2.07175e-06
2.07175e-06
2.07176e-06
2.07176e-06
2.07173e-06
2.07465e-06
2.07667e-06
2.07486e-06
2.07173e-06
2.07174e-06
2.07175e-06
2.07175e-06
2.07175e-06
2.07175e-06
2.07175e-06
2.07175e-06
2.07173e-06
2.07448e-06
2.07658e-06
2.07494e-06
2.07172e-06
2.07175e-06
2.07176e-06
2.07175e-06
2.07175e-06
2.07175e-06
2.07176e-06
2.07176e-06
2.07173e-06
2.07455e-06
2.07657e-06
2.07647e-06
2.07433e-06
2.07181e-06
2.07178e-06
2.07176e-06
2.07175e-06
2.07176e-06
2.07178e-06
2.07181e-06
2.07386e-06
2.07487e-06
2.07678e-06
2.07678e-06
2.075e-06
2.07421e-06
2.07183e-06
2.07176e-06
2.07175e-06
2.07176e-06
2.07182e-06
2.07381e-06
2.07468e-06
2.07523e-06
2.07661e-06
2.075e-06
2.07423e-06
2.07173e-06
2.07173e-06
2.07173e-06
2.07386e-06
2.07468e-06
2.07526e-06
2.07684e-06
2.0766e-06
2.07505e-06
2.07465e-06
2.07448e-06
2.07455e-06
2.07487e-06
2.07523e-06
2.07684e-06
2.07685e-06
2.07667e-06
2.07658e-06
2.07657e-06
2.07678e-06
2.05908e-06
2.05726e-06
2.0571e-06
2.05715e-06
2.05877e-06
2.05909e-06
2.05923e-06
2.05748e-06
2.05685e-06
2.05387e-06
2.05388e-06
2.05387e-06
2.05658e-06
2.05724e-06
2.05889e-06
2.05749e-06
2.05679e-06
2.05389e-06
2.05389e-06
2.05389e-06
2.05389e-06
2.05389e-06
2.05644e-06
2.05722e-06
2.05891e-06
2.05909e-06
2.05685e-06
2.0539e-06
2.0539e-06
2.0539e-06
2.0539e-06
2.0539e-06
2.0539e-06
2.0539e-06
2.05647e-06
2.05732e-06
2.05916e-06
2.05726e-06
2.05387e-06
2.05389e-06
2.0539e-06
2.0539e-06
2.0539e-06
2.0539e-06
2.0539e-06
2.05389e-06
2.05387e-06
2.05694e-06
2.05899e-06
2.0571e-06
2.05388e-06
2.05389e-06
2.0539e-06
2.0539e-06
2.0539e-06
2.0539e-06
2.0539e-06
2.05389e-06
2.05388e-06
2.05678e-06
2.05895e-06
2.05715e-06
2.05387e-06
2.05389e-06
2.0539e-06
2.0539e-06
2.0539e-06
2.0539e-06
2.0539e-06
2.05389e-06
2.05387e-06
2.05683e-06
2.05898e-06
2.05878e-06
2.05659e-06
2.0539e-06
2.0539e-06
2.0539e-06
2.0539e-06
2.0539e-06
2.0539e-06
2.05389e-06
2.05612e-06
2.05714e-06
2.05909e-06
2.05909e-06
2.05724e-06
2.05644e-06
2.0539e-06
2.05389e-06
2.05389e-06
2.05389e-06
2.0539e-06
2.05604e-06
2.05691e-06
2.0575e-06
2.05889e-06
2.05723e-06
2.05647e-06
2.05388e-06
2.05389e-06
2.05388e-06
2.05612e-06
2.05692e-06
2.05749e-06
2.05913e-06
2.05891e-06
2.05732e-06
2.05694e-06
2.05678e-06
2.05683e-06
2.05715e-06
2.05751e-06
2.05914e-06
2.05916e-06
2.05899e-06
2.05895e-06
2.05898e-06
2.05909e-06
2.04143e-06
2.03958e-06
2.03942e-06
2.03948e-06
2.04111e-06
2.04143e-06
2.0416e-06
2.03981e-06
2.03917e-06
2.03613e-06
2.03613e-06
2.03613e-06
2.03891e-06
2.03957e-06
2.04124e-06
2.03981e-06
2.03911e-06
2.03614e-06
2.03614e-06
2.03614e-06
2.03614e-06
2.03614e-06
2.03879e-06
2.03956e-06
2.04128e-06
2.04143e-06
2.03917e-06
2.03614e-06
2.03614e-06
2.03614e-06
2.03614e-06
2.03614e-06
2.03614e-06
2.03614e-06
2.03881e-06
2.03965e-06
2.0415e-06
2.03959e-06
2.03613e-06
2.03614e-06
2.03614e-06
2.03615e-06
2.03615e-06
2.03615e-06
2.03614e-06
2.03614e-06
2.03613e-06
2.03929e-06
2.04132e-06
2.03943e-06
2.03613e-06
2.03614e-06
2.03614e-06
2.03615e-06
2.03615e-06
2.03615e-06
2.03614e-06
2.03614e-06
2.03613e-06
2.03914e-06
2.04125e-06
2.03948e-06
2.03613e-06
2.03614e-06
2.03614e-06
2.03615e-06
2.03615e-06
2.03615e-06
2.03614e-06
2.03614e-06
2.03613e-06
2.03919e-06
2.04129e-06
2.04111e-06
2.03891e-06
2.03614e-06
2.03614e-06
2.03614e-06
2.03614e-06
2.03614e-06
2.03614e-06
2.03614e-06
2.03847e-06
2.03948e-06
2.04142e-06
2.04143e-06
2.03958e-06
2.03879e-06
2.03614e-06
2.03614e-06
2.03614e-06
2.03614e-06
2.03614e-06
2.03842e-06
2.03926e-06
2.03985e-06
2.04124e-06
2.03956e-06
2.03881e-06
2.03613e-06
2.03613e-06
2.03613e-06
2.03847e-06
2.03926e-06
2.03983e-06
2.0415e-06
2.04128e-06
2.03966e-06
2.03929e-06
2.03914e-06
2.0392e-06
2.03948e-06
2.03985e-06
2.04151e-06
2.0415e-06
2.04132e-06
2.04125e-06
2.04128e-06
2.04142e-06
2.02377e-06
2.02192e-06
2.02176e-06
2.02182e-06
2.02345e-06
2.02378e-06
2.02394e-06
2.02215e-06
2.0215e-06
2.01842e-06
2.01843e-06
2.01843e-06
2.02124e-06
2.02191e-06
2.02358e-06
2.02214e-06
2.02144e-06
2.01843e-06
2.01843e-06
2.01843e-06
2.01843e-06
2.01843e-06
2.02113e-06
2.02189e-06
2.02362e-06
2.02377e-06
2.0215e-06
2.01843e-06
2.01843e-06
2.01844e-06
2.01844e-06
2.01844e-06
2.01843e-06
2.01843e-06
2.02115e-06
2.02199e-06
2.02384e-06
2.02192e-06
2.01842e-06
2.01843e-06
2.01844e-06
2.01844e-06
2.01844e-06
2.01844e-06
2.01844e-06
2.01843e-06
2.01842e-06
2.02163e-06
2.02366e-06
2.02176e-06
2.01843e-06
2.01843e-06
2.01844e-06
2.01844e-06
2.01844e-06
2.01844e-06
2.01844e-06
2.01843e-06
2.01843e-06
2.02149e-06
2.02359e-06
2.02182e-06
2.01842e-06
2.01843e-06
2.01844e-06
2.01844e-06
2.01844e-06
2.01844e-06
2.01844e-06
2.01843e-06
2.01843e-06
2.02154e-06
2.02361e-06
2.02345e-06
2.02125e-06
2.01843e-06
2.01843e-06
2.01844e-06
2.01844e-06
2.01844e-06
2.01843e-06
2.01843e-06
2.0208e-06
2.02182e-06
2.02376e-06
2.02378e-06
2.02191e-06
2.02113e-06
2.01843e-06
2.01843e-06
2.01843e-06
2.01843e-06
2.01843e-06
2.02077e-06
2.0216e-06
2.02219e-06
2.02358e-06
2.02189e-06
2.02115e-06
2.01843e-06
2.01843e-06
2.01843e-06
2.0208e-06
2.0216e-06
2.02216e-06
2.02385e-06
2.02362e-06
2.02199e-06
2.02163e-06
2.02149e-06
2.02154e-06
2.02182e-06
2.02218e-06
2.02384e-06
2.02384e-06
2.02366e-06
2.02359e-06
2.02361e-06
2.02376e-06
2.0061e-06
2.00425e-06
2.00409e-06
2.00415e-06
2.00578e-06
2.00611e-06
2.00628e-06
2.00448e-06
2.00383e-06
2.00074e-06
2.00074e-06
2.00074e-06
2.00357e-06
2.00424e-06
2.00591e-06
2.00448e-06
2.00377e-06
2.00074e-06
2.00074e-06
2.00074e-06
2.00074e-06
2.00074e-06
2.00346e-06
2.00422e-06
2.00596e-06
2.0061e-06
2.00383e-06
2.00074e-06
2.00075e-06
2.00075e-06
2.00075e-06
2.00075e-06
2.00075e-06
2.00074e-06
2.00348e-06
2.00432e-06
2.00617e-06
2.00425e-06
2.00074e-06
2.00074e-06
2.00075e-06
2.00075e-06
2.00075e-06
2.00075e-06
2.00075e-06
2.00074e-06
2.00074e-06
2.00396e-06
2.00599e-06
2.00409e-06
2.00074e-06
2.00074e-06
2.00075e-06
2.00075e-06
2.00075e-06
2.00075e-06
2.00075e-06
2.00074e-06
2.00074e-06
2.00383e-06
2.00592e-06
2.00415e-06
2.00074e-06
2.00074e-06
2.00075e-06
2.00075e-06
2.00075e-06
2.00075e-06
2.00075e-06
2.00074e-06
2.00074e-06
2.00388e-06
2.00594e-06
2.00578e-06
2.00357e-06
2.00074e-06
2.00075e-06
2.00075e-06
2.00075e-06
2.00075e-06
2.00075e-06
2.00074e-06
2.00313e-06
2.00415e-06
2.00609e-06
2.00611e-06
2.00424e-06
2.00346e-06
2.00074e-06
2.00074e-06
2.00074e-06
2.00074e-06
2.00074e-06
2.0031e-06
2.00393e-06
2.00452e-06
2.00591e-06
2.00422e-06
2.00348e-06
2.00074e-06
2.00074e-06
2.00074e-06
2.00313e-06
2.00393e-06
2.00449e-06
2.00618e-06
2.00596e-06
2.00432e-06
2.00396e-06
2.00383e-06
2.00388e-06
2.00415e-06
2.00452e-06
2.00618e-06
2.00617e-06
2.00599e-06
2.00592e-06
2.00594e-06
2.00609e-06
1.98843e-06
1.98658e-06
1.98642e-06
1.98648e-06
1.98811e-06
1.98844e-06
1.9886e-06
1.98681e-06
1.98616e-06
1.98306e-06
1.98306e-06
1.98306e-06
1.9859e-06
1.98657e-06
1.98824e-06
1.98681e-06
1.9861e-06
1.98307e-06
1.98307e-06
1.98307e-06
1.98307e-06
1.98307e-06
1.98579e-06
1.98655e-06
1.98829e-06
1.98843e-06
1.98616e-06
1.98307e-06
1.98307e-06
1.98307e-06
1.98307e-06
1.98307e-06
1.98307e-06
1.98307e-06
1.98581e-06
1.98665e-06
1.9885e-06
1.98658e-06
1.98306e-06
1.98307e-06
1.98307e-06
1.98307e-06
1.98307e-06
1.98307e-06
1.98307e-06
1.98307e-06
1.98306e-06
1.9863e-06
1.98832e-06
1.98642e-06
1.98306e-06
1.98307e-06
1.98307e-06
1.98307e-06
1.98307e-06
1.98307e-06
1.98307e-06
1.98307e-06
1.98306e-06
1.98616e-06
1.98824e-06
1.98648e-06
1.98306e-06
1.98307e-06
1.98307e-06
1.98307e-06
1.98307e-06
1.98307e-06
1.98307e-06
1.98307e-06
1.98306e-06
1.98621e-06
1.98827e-06
1.98811e-06
1.9859e-06
1.98307e-06
1.98307e-06
1.98307e-06
1.98307e-06
1.98307e-06
1.98307e-06
1.98306e-06
1.98546e-06
1.98648e-06
1.98842e-06
1.98844e-06
1.98657e-06
1.98579e-06
1.98307e-06
1.98307e-06
1.98307e-06
1.98307e-06
1.98307e-06
1.98543e-06
1.98626e-06
1.98685e-06
1.98824e-06
1.98655e-06
1.98581e-06
1.98306e-06
1.98306e-06
1.98306e-06
1.98546e-06
1.98626e-06
1.98682e-06
1.98851e-06
1.98829e-06
1.98665e-06
1.9863e-06
1.98616e-06
1.98621e-06
1.98648e-06
1.98685e-06
1.98851e-06
1.9885e-06
1.98832e-06
1.98825e-06
1.98827e-06
1.98842e-06
1.97076e-06
1.96891e-06
1.96875e-06
1.96881e-06
1.97044e-06
1.97077e-06
1.97093e-06
1.96914e-06
1.96849e-06
1.96539e-06
1.96539e-06
1.96539e-06
1.96823e-06
1.9689e-06
1.97057e-06
1.96914e-06
1.96843e-06
1.96539e-06
1.96539e-06
1.96539e-06
1.96539e-06
1.96539e-06
1.96812e-06
1.96888e-06
1.97062e-06
1.97076e-06
1.96849e-06
1.96539e-06
1.96539e-06
1.96539e-06
1.96539e-06
1.96539e-06
1.96539e-06
1.96539e-06
1.96814e-06
1.96898e-06
1.97083e-06
1.96891e-06
1.96539e-06
1.96539e-06
1.96539e-06
1.9654e-06
1.9654e-06
1.96539e-06
1.96539e-06
1.96539e-06
1.96539e-06
1.96863e-06
1.97065e-06
1.96875e-06
1.96539e-06
1.96539e-06
1.96539e-06
1.9654e-06
1.9654e-06
1.9654e-06
1.96539e-06
1.96539e-06
1.96539e-06
1.96849e-06
1.97057e-06
1.96881e-06
1.96539e-06
1.96539e-06
1.96539e-06
1.9654e-06
1.9654e-06
1.96539e-06
1.96539e-06
1.96539e-06
1.96539e-06
1.96854e-06
1.9706e-06
1.97044e-06
1.96823e-06
1.96539e-06
1.96539e-06
1.96539e-06
1.96539e-06
1.96539e-06
1.96539e-06
1.96539e-06
1.96779e-06
1.96881e-06
1.97075e-06
1.97077e-06
1.9689e-06
1.96812e-06
1.96539e-06
1.96539e-06
1.96539e-06
1.96539e-06
1.96539e-06
1.96776e-06
1.96859e-06
1.96918e-06
1.97057e-06
1.96888e-06
1.96814e-06
1.96539e-06
1.96539e-06
1.96539e-06
1.96779e-06
1.96859e-06
1.96915e-06
1.97083e-06
1.97062e-06
1.96898e-06
1.96863e-06
1.96849e-06
1.96854e-06
1.96881e-06
1.96918e-06
1.97084e-06
1.97083e-06
1.97065e-06
1.97058e-06
1.9706e-06
1.97075e-06
1.95309e-06
1.95124e-06
1.95108e-06
1.95114e-06
1.95277e-06
1.9531e-06
1.95326e-06
1.95147e-06
1.95082e-06
1.94772e-06
1.94772e-06
1.94772e-06
1.95056e-06
1.95123e-06
1.9529e-06
1.95147e-06
1.95076e-06
1.94772e-06
1.94772e-06
1.94772e-06
1.94772e-06
1.94772e-06
1.95045e-06
1.95121e-06
1.95295e-06
1.95309e-06
1.95082e-06
1.94772e-06
1.94772e-06
1.94772e-06
1.94772e-06
1.94772e-06
1.94772e-06
1.94772e-06
1.95047e-06
1.95131e-06
1.95316e-06
1.95124e-06
1.94772e-06
1.94772e-06
1.94772e-06
1.94772e-06
1.94772e-06
1.94772e-06
1.94772e-06
1.94772e-06
1.94772e-06
1.95096e-06
1.95298e-06
1.95108e-06
1.94772e-06
1.94772e-06
1.94772e-06
1.94772e-06
1.94772e-06
1.94772e-06
1.94772e-06
1.94772e-06
1.94772e-06
1.95082e-06
1.95291e-06
1.95114e-06
1.94772e-06
1.94772e-06
1.94772e-06
1.94772e-06
1.94772e-06
1.94772e-06
1.94772e-06
1.94772e-06
1.94772e-06
1.95087e-06
1.95293e-06
1.95277e-06
1.95056e-06
1.94772e-06
1.94772e-06
1.94772e-06
1.94772e-06
1.94772e-06
1.94772e-06
1.94772e-06
1.95012e-06
1.95114e-06
1.95308e-06
1.9531e-06
1.95123e-06
1.95045e-06
1.94772e-06
1.94772e-06
1.94772e-06
1.94772e-06
1.94772e-06
1.95009e-06
1.95092e-06
1.95151e-06
1.9529e-06
1.95121e-06
1.95047e-06
1.94772e-06
1.94772e-06
1.94772e-06
1.95012e-06
1.95092e-06
1.95149e-06
1.95317e-06
1.95295e-06
1.95131e-06
1.95096e-06
1.95082e-06
1.95087e-06
1.95114e-06
1.95151e-06
1.95317e-06
1.95316e-06
1.95298e-06
1.95291e-06
1.95293e-06
1.95308e-06
1.93543e-06
1.93357e-06
1.93341e-06
1.93347e-06
1.9351e-06
1.93543e-06
1.9356e-06
1.9338e-06
1.93315e-06
1.93005e-06
1.93005e-06
1.93005e-06
1.93289e-06
1.93356e-06
1.93523e-06
1.9338e-06
1.93309e-06
1.93005e-06
1.93005e-06
1.93005e-06
1.93005e-06
1.93005e-06
1.93278e-06
1.93354e-06
1.93528e-06
1.93543e-06
1.93315e-06
1.93005e-06
1.93005e-06
1.93005e-06
1.93005e-06
1.93005e-06
1.93005e-06
1.93005e-06
1.9328e-06
1.93364e-06
1.93549e-06
1.93357e-06
1.93005e-06
1.93005e-06
1.93005e-06
1.93005e-06
1.93005e-06
1.93005e-06
1.93005e-06
1.93005e-06
1.93005e-06
1.93329e-06
1.93531e-06
1.93341e-06
1.93005e-06
1.93005e-06
1.93005e-06
1.93005e-06
1.93005e-06
1.93005e-06
1.93005e-06
1.93005e-06
1.93005e-06
1.93315e-06
1.93524e-06
1.93347e-06
1.93005e-06
1.93005e-06
1.93005e-06
1.93005e-06
1.93005e-06
1.93005e-06
1.93005e-06
1.93005e-06
1.93005e-06
1.9332e-06
1.93526e-06
1.9351e-06
1.9329e-06
1.93005e-06
1.93005e-06
1.93005e-06
1.93005e-06
1.93005e-06
1.93005e-06
1.93005e-06
1.93245e-06
1.93347e-06
1.93541e-06
1.93543e-06
1.93356e-06
1.93278e-06
1.93005e-06
1.93005e-06
1.93005e-06
1.93005e-06
1.93005e-06
1.93242e-06
1.93325e-06
1.93384e-06
1.93523e-06
1.93354e-06
1.9328e-06
1.93005e-06
1.93005e-06
1.93005e-06
1.93245e-06
1.93325e-06
1.93381e-06
1.9355e-06
1.93528e-06
1.93364e-06
1.93329e-06
1.93315e-06
1.9332e-06
1.93347e-06
1.93384e-06
1.9355e-06
1.93549e-06
1.93531e-06
1.93524e-06
1.93526e-06
1.93541e-06
1.91776e-06
1.9159e-06
1.91574e-06
1.9158e-06
1.91743e-06
1.91776e-06
1.91793e-06
1.91613e-06
1.91548e-06
1.91238e-06
1.91238e-06
1.91238e-06
1.91522e-06
1.91589e-06
1.91756e-06
1.91613e-06
1.91542e-06
1.91238e-06
1.91238e-06
1.91238e-06
1.91238e-06
1.91238e-06
1.91511e-06
1.91587e-06
1.91761e-06
1.91776e-06
1.91548e-06
1.91238e-06
1.91238e-06
1.91238e-06
1.91238e-06
1.91238e-06
1.91238e-06
1.91238e-06
1.91513e-06
1.91597e-06
1.91782e-06
1.9159e-06
1.91238e-06
1.91238e-06
1.91238e-06
1.91238e-06
1.91238e-06
1.91238e-06
1.91238e-06
1.91238e-06
1.91238e-06
1.91562e-06
1.91764e-06
1.91574e-06
1.91238e-06
1.91238e-06
1.91238e-06
1.91238e-06
1.91238e-06
1.91238e-06
1.91238e-06
1.91238e-06
1.91238e-06
1.91548e-06
1.91757e-06
1.9158e-06
1.91238e-06
1.91238e-06
1.91238e-06
1.91238e-06
1.91238e-06
1.91238e-06
1.91238e-06
1.91238e-06
1.91238e-06
1.91553e-06
1.91759e-06
1.91743e-06
1.91523e-06
1.91238e-06
1.91238e-06
1.91238e-06
1.91238e-06
1.91238e-06
1.91238e-06
1.91238e-06
1.91478e-06
1.9158e-06
1.91774e-06
1.91776e-06
1.91589e-06
1.91511e-06
1.91238e-06
1.91238e-06
1.91238e-06
1.91238e-06
1.91238e-06
1.91475e-06
1.91558e-06
1.91617e-06
1.91757e-06
1.91588e-06
1.91513e-06
1.91238e-06
1.91238e-06
1.91238e-06
1.91478e-06
1.91558e-06
1.91614e-06
1.91783e-06
1.91761e-06
1.91597e-06
1.91562e-06
1.91548e-06
1.91553e-06
1.9158e-06
1.91617e-06
1.91783e-06
1.91782e-06
1.91764e-06
1.91757e-06
1.91759e-06
1.91774e-06
1.90009e-06
1.89823e-06
1.89807e-06
1.89813e-06
1.89976e-06
1.90009e-06
1.90026e-06
1.89846e-06
1.89781e-06
1.89471e-06
1.89471e-06
1.89471e-06
1.89756e-06
1.89822e-06
1.8999e-06
1.89846e-06
1.89775e-06
1.89471e-06
1.89471e-06
1.89471e-06
1.89471e-06
1.89471e-06
1.89744e-06
1.89821e-06
1.89994e-06
1.90009e-06
1.89781e-06
1.89471e-06
1.89471e-06
1.89471e-06
1.89471e-06
1.89471e-06
1.89471e-06
1.89471e-06
1.89746e-06
1.8983e-06
1.90015e-06
1.89823e-06
1.89471e-06
1.89471e-06
1.89471e-06
1.89471e-06
1.89471e-06
1.89471e-06
1.89471e-06
1.89471e-06
1.89471e-06
1.89795e-06
1.89997e-06
1.89807e-06
1.89471e-06
1.89471e-06
1.89471e-06
1.89471e-06
1.89471e-06
1.89471e-06
1.89471e-06
1.89471e-06
1.89471e-06
1.89781e-06
1.8999e-06
1.89813e-06
1.89471e-06
1.89471e-06
1.89471e-06
1.89471e-06
1.89471e-06
1.89471e-06
1.89471e-06
1.89471e-06
1.89471e-06
1.89786e-06
1.89992e-06
1.89976e-06
1.89756e-06
1.89471e-06
1.89471e-06
1.89471e-06
1.89471e-06
1.89471e-06
1.89471e-06
1.89471e-06
1.89711e-06
1.89813e-06
1.90007e-06
1.90009e-06
1.89822e-06
1.89744e-06
1.89471e-06
1.89471e-06
1.89471e-06
1.89471e-06
1.89471e-06
1.89708e-06
1.89791e-06
1.8985e-06
1.8999e-06
1.89821e-06
1.89746e-06
1.89471e-06
1.89471e-06
1.89471e-06
1.89711e-06
1.89791e-06
1.89847e-06
1.90016e-06
1.89994e-06
1.8983e-06
1.89795e-06
1.89781e-06
1.89786e-06
1.89813e-06
1.8985e-06
1.90016e-06
1.90015e-06
1.89997e-06
1.8999e-06
1.89992e-06
1.90007e-06
1.88242e-06
1.88056e-06
1.8804e-06
1.88046e-06
1.88209e-06
1.88242e-06
1.88259e-06
1.88079e-06
1.88014e-06
1.87704e-06
1.87704e-06
1.87704e-06
1.87989e-06
1.88055e-06
1.88223e-06
1.88079e-06
1.88008e-06
1.87704e-06
1.87704e-06
1.87704e-06
1.87704e-06
1.87704e-06
1.87978e-06
1.88054e-06
1.88227e-06
1.88242e-06
1.88014e-06
1.87704e-06
1.87704e-06
1.87704e-06
1.87704e-06
1.87704e-06
1.87704e-06
1.87704e-06
1.87979e-06
1.88063e-06
1.88248e-06
1.88056e-06
1.87704e-06
1.87704e-06
1.87704e-06
1.87704e-06
1.87704e-06
1.87704e-06
1.87704e-06
1.87704e-06
1.87704e-06
1.88028e-06
1.8823e-06
1.8804e-06
1.87704e-06
1.87704e-06
1.87704e-06
1.87704e-06
1.87704e-06
1.87704e-06
1.87704e-06
1.87704e-06
1.87704e-06
1.88014e-06
1.88223e-06
1.88046e-06
1.87704e-06
1.87704e-06
1.87704e-06
1.87704e-06
1.87704e-06
1.87704e-06
1.87704e-06
1.87704e-06
1.87704e-06
1.88019e-06
1.88225e-06
1.88209e-06
1.87989e-06
1.87704e-06
1.87704e-06
1.87704e-06
1.87704e-06
1.87704e-06
1.87704e-06
1.87704e-06
1.87944e-06
1.88046e-06
1.8824e-06
1.88242e-06
1.88055e-06
1.87977e-06
1.87704e-06
1.87704e-06
1.87704e-06
1.87704e-06
1.87704e-06
1.87941e-06
1.88024e-06
1.88083e-06
1.88223e-06
1.88054e-06
1.87979e-06
1.87704e-06
1.87704e-06
1.87704e-06
1.87944e-06
1.88024e-06
1.8808e-06
1.88249e-06
1.88227e-06
1.88063e-06
1.88028e-06
1.88014e-06
1.88019e-06
1.88046e-06
1.88083e-06
1.88249e-06
1.88248e-06
1.8823e-06
1.88223e-06
1.88225e-06
1.8824e-06
1.86475e-06
1.86289e-06
1.86274e-06
1.86279e-06
1.86442e-06
1.86475e-06
1.86492e-06
1.86312e-06
1.86247e-06
1.85937e-06
1.85937e-06
1.85937e-06
1.86222e-06
1.86289e-06
1.86456e-06
1.86312e-06
1.86241e-06
1.85937e-06
1.85937e-06
1.85937e-06
1.85937e-06
1.85937e-06
1.86211e-06
1.86287e-06
1.8646e-06
1.86475e-06
1.86247e-06
1.85937e-06
1.85937e-06
1.85937e-06
1.85937e-06
1.85937e-06
1.85937e-06
1.85937e-06
1.86212e-06
1.86296e-06
1.86481e-06
1.86289e-06
1.85937e-06
1.85937e-06
1.85937e-06
1.85937e-06
1.85937e-06
1.85937e-06
1.85937e-06
1.85937e-06
1.85937e-06
1.86261e-06
1.86463e-06
1.86274e-06
1.85937e-06
1.85937e-06
1.85937e-06
1.85937e-06
1.85937e-06
1.85937e-06
1.85937e-06
1.85937e-06
1.85937e-06
1.86247e-06
1.86456e-06
1.86279e-06
1.85937e-06
1.85937e-06
1.85937e-06
1.85937e-06
1.85937e-06
1.85937e-06
1.85937e-06
1.85937e-06
1.85937e-06
1.86252e-06
1.86458e-06
1.86442e-06
1.86222e-06
1.85937e-06
1.85937e-06
1.85937e-06
1.85937e-06
1.85937e-06
1.85937e-06
1.85937e-06
1.86178e-06
1.86279e-06
1.86473e-06
1.86475e-06
1.86289e-06
1.86211e-06
1.85937e-06
1.85937e-06
1.85937e-06
1.85937e-06
1.85937e-06
1.86174e-06
1.86257e-06
1.86316e-06
1.86456e-06
1.86287e-06
1.86212e-06
1.85937e-06
1.85937e-06
1.85937e-06
1.86178e-06
1.86257e-06
1.86313e-06
1.86482e-06
1.8646e-06
1.86296e-06
1.86261e-06
1.86247e-06
1.86252e-06
1.86279e-06
1.86316e-06
1.86482e-06
1.86481e-06
1.86463e-06
1.86456e-06
1.86458e-06
1.86473e-06
1.84708e-06
1.84523e-06
1.84507e-06
1.84512e-06
1.84675e-06
1.84708e-06
1.84725e-06
1.84545e-06
1.8448e-06
1.8417e-06
1.8417e-06
1.8417e-06
1.84455e-06
1.84522e-06
1.84689e-06
1.84545e-06
1.84474e-06
1.8417e-06
1.8417e-06
1.8417e-06
1.8417e-06
1.8417e-06
1.84444e-06
1.8452e-06
1.84693e-06
1.84708e-06
1.8448e-06
1.8417e-06
1.8417e-06
1.8417e-06
1.8417e-06
1.8417e-06
1.8417e-06
1.8417e-06
1.84445e-06
1.84529e-06
1.84714e-06
1.84523e-06
1.8417e-06
1.8417e-06
1.8417e-06
1.8417e-06
1.8417e-06
1.8417e-06
1.8417e-06
1.8417e-06
1.8417e-06
1.84494e-06
1.84696e-06
1.84507e-06
1.8417e-06
1.8417e-06
1.8417e-06
1.8417e-06
1.8417e-06
1.8417e-06
1.8417e-06
1.8417e-06
1.8417e-06
1.84481e-06
1.84689e-06
1.84512e-06
1.8417e-06
1.8417e-06
1.8417e-06
1.8417e-06
1.8417e-06
1.8417e-06
1.8417e-06
1.8417e-06
1.8417e-06
1.84485e-06
1.84691e-06
1.84675e-06
1.84455e-06
1.8417e-06
1.8417e-06
1.8417e-06
1.8417e-06
1.8417e-06
1.8417e-06
1.8417e-06
1.84411e-06
1.84512e-06
1.84706e-06
1.84708e-06
1.84522e-06
1.84444e-06
1.8417e-06
1.8417e-06
1.8417e-06
1.8417e-06
1.8417e-06
1.84407e-06
1.8449e-06
1.84549e-06
1.84689e-06
1.8452e-06
1.84446e-06
1.8417e-06
1.8417e-06
1.8417e-06
1.84411e-06
1.8449e-06
1.84546e-06
1.84715e-06
1.84693e-06
1.84529e-06
1.84494e-06
1.8448e-06
1.84485e-06
1.84512e-06
1.84549e-06
1.84715e-06
1.84714e-06
1.84696e-06
1.84689e-06
1.84691e-06
1.84706e-06
1.82941e-06
1.82756e-06
1.8274e-06
1.82745e-06
1.82908e-06
1.82941e-06
1.82958e-06
1.82778e-06
1.82713e-06
1.82403e-06
1.82403e-06
1.82403e-06
1.82688e-06
1.82755e-06
1.82922e-06
1.82778e-06
1.82707e-06
1.82403e-06
1.82403e-06
1.82403e-06
1.82403e-06
1.82403e-06
1.82677e-06
1.82753e-06
1.82926e-06
1.82941e-06
1.82713e-06
1.82403e-06
1.82403e-06
1.82403e-06
1.82403e-06
1.82403e-06
1.82403e-06
1.82403e-06
1.82678e-06
1.82762e-06
1.82947e-06
1.82756e-06
1.82403e-06
1.82403e-06
1.82403e-06
1.82403e-06
1.82403e-06
1.82403e-06
1.82403e-06
1.82403e-06
1.82403e-06
1.82727e-06
1.82929e-06
1.8274e-06
1.82403e-06
1.82403e-06
1.82403e-06
1.82403e-06
1.82403e-06
1.82403e-06
1.82403e-06
1.82403e-06
1.82403e-06
1.82714e-06
1.82922e-06
1.82745e-06
1.82403e-06
1.82403e-06
1.82403e-06
1.82403e-06
1.82403e-06
1.82403e-06
1.82403e-06
1.82403e-06
1.82403e-06
1.82718e-06
1.82924e-06
1.82908e-06
1.82688e-06
1.82403e-06
1.82403e-06
1.82403e-06
1.82403e-06
1.82403e-06
1.82403e-06
1.82403e-06
1.82644e-06
1.82745e-06
1.82939e-06
1.82941e-06
1.82755e-06
1.82677e-06
1.82403e-06
1.82403e-06
1.82403e-06
1.82403e-06
1.82403e-06
1.82641e-06
1.82723e-06
1.82782e-06
1.82922e-06
1.82753e-06
1.82679e-06
1.82403e-06
1.82403e-06
1.82403e-06
1.82644e-06
1.82723e-06
1.82779e-06
1.82948e-06
1.82926e-06
1.82762e-06
1.82727e-06
1.82714e-06
1.82718e-06
1.82745e-06
1.82782e-06
1.82948e-06
1.82947e-06
1.82929e-06
1.82922e-06
1.82924e-06
1.82939e-06
1.81174e-06
1.80989e-06
1.80973e-06
1.80978e-06
1.81141e-06
1.81174e-06
1.81191e-06
1.81011e-06
1.80946e-06
1.80636e-06
1.80636e-06
1.80636e-06
1.80921e-06
1.80988e-06
1.81155e-06
1.81011e-06
1.8094e-06
1.80636e-06
1.80636e-06
1.80636e-06
1.80636e-06
1.80636e-06
1.8091e-06
1.80986e-06
1.81159e-06
1.81174e-06
1.80946e-06
1.80636e-06
1.80636e-06
1.80636e-06
1.80636e-06
1.80636e-06
1.80636e-06
1.80636e-06
1.80912e-06
1.80995e-06
1.8118e-06
1.80989e-06
1.80636e-06
1.80636e-06
1.80636e-06
1.80636e-06
1.80636e-06
1.80636e-06
1.80636e-06
1.80636e-06
1.80636e-06
1.8096e-06
1.81162e-06
1.80973e-06
1.80636e-06
1.80636e-06
1.80636e-06
1.80636e-06
1.80636e-06
1.80636e-06
1.80636e-06
1.80636e-06
1.80636e-06
1.80947e-06
1.81155e-06
1.80979e-06
1.80636e-06
1.80636e-06
1.80636e-06
1.80636e-06
1.80636e-06
1.80636e-06
1.80636e-06
1.80636e-06
1.80636e-06
1.80951e-06
1.81157e-06
1.81141e-06
1.80921e-06
1.80636e-06
1.80636e-06
1.80636e-06
1.80636e-06
1.80636e-06
1.80636e-06
1.80636e-06
1.80877e-06
1.80978e-06
1.81172e-06
1.81174e-06
1.80988e-06
1.8091e-06
1.80636e-06
1.80636e-06
1.80636e-06
1.80636e-06
1.80636e-06
1.80874e-06
1.80956e-06
1.81015e-06
1.81155e-06
1.80986e-06
1.80912e-06
1.80636e-06
1.80636e-06
1.80636e-06
1.80877e-06
1.80956e-06
1.81012e-06
1.81181e-06
1.81159e-06
1.80995e-06
1.8096e-06
1.80947e-06
1.80951e-06
1.80978e-06
1.81015e-06
1.81181e-06
1.8118e-06
1.81162e-06
1.81155e-06
1.81157e-06
1.81172e-06
1.79407e-06
1.79222e-06
1.79206e-06
1.79212e-06
1.79374e-06
1.79408e-06
1.79424e-06
1.79244e-06
1.79179e-06
1.78869e-06
1.78869e-06
1.78869e-06
1.79154e-06
1.79221e-06
1.79388e-06
1.79244e-06
1.79173e-06
1.78869e-06
1.78869e-06
1.78869e-06
1.78869e-06
1.78869e-06
1.79143e-06
1.79219e-06
1.79392e-06
1.79407e-06
1.79179e-06
1.78869e-06
1.78869e-06
1.78869e-06
1.78869e-06
1.78869e-06
1.78869e-06
1.78869e-06
1.79145e-06
1.79229e-06
1.79413e-06
1.79222e-06
1.78869e-06
1.78869e-06
1.78869e-06
1.78869e-06
1.78869e-06
1.78869e-06
1.78869e-06
1.78869e-06
1.78869e-06
1.79193e-06
1.79395e-06
1.79206e-06
1.78869e-06
1.78869e-06
1.78869e-06
1.78869e-06
1.78869e-06
1.78869e-06
1.78869e-06
1.78869e-06
1.78869e-06
1.7918e-06
1.79388e-06
1.79212e-06
1.78869e-06
1.78869e-06
1.78869e-06
1.78869e-06
1.78869e-06
1.78869e-06
1.78869e-06
1.78869e-06
1.78869e-06
1.79184e-06
1.7939e-06
1.79374e-06
1.79154e-06
1.78869e-06
1.78869e-06
1.78869e-06
1.78869e-06
1.78869e-06
1.78869e-06
1.78869e-06
1.7911e-06
1.79211e-06
1.79405e-06
1.79408e-06
1.79221e-06
1.79143e-06
1.78869e-06
1.78869e-06
1.78869e-06
1.78869e-06
1.78869e-06
1.79107e-06
1.79189e-06
1.79248e-06
1.79388e-06
1.79219e-06
1.79145e-06
1.78869e-06
1.78869e-06
1.78869e-06
1.7911e-06
1.79189e-06
1.79246e-06
1.79414e-06
1.79392e-06
1.79229e-06
1.79193e-06
1.7918e-06
1.79184e-06
1.79211e-06
1.79248e-06
1.79414e-06
1.79413e-06
1.79395e-06
1.79388e-06
1.7939e-06
1.79406e-06
1.7764e-06
1.77455e-06
1.77439e-06
1.77445e-06
1.77607e-06
1.77641e-06
1.77657e-06
1.77477e-06
1.77412e-06
1.77102e-06
1.77102e-06
1.77102e-06
1.77387e-06
1.77454e-06
1.77621e-06
1.77477e-06
1.77407e-06
1.77102e-06
1.77102e-06
1.77102e-06
1.77102e-06
1.77102e-06
1.77376e-06
1.77452e-06
1.77625e-06
1.7764e-06
1.77412e-06
1.77102e-06
1.77102e-06
1.77102e-06
1.77102e-06
1.77102e-06
1.77102e-06
1.77102e-06
1.77378e-06
1.77462e-06
1.77646e-06
1.77455e-06
1.77102e-06
1.77102e-06
1.77102e-06
1.77102e-06
1.77102e-06
1.77102e-06
1.77102e-06
1.77102e-06
1.77102e-06
1.77426e-06
1.77628e-06
1.77439e-06
1.77102e-06
1.77102e-06
1.77102e-06
1.77102e-06
1.77102e-06
1.77102e-06
1.77102e-06
1.77102e-06
1.77102e-06
1.77413e-06
1.77621e-06
1.77445e-06
1.77102e-06
1.77102e-06
1.77102e-06
1.77102e-06
1.77102e-06
1.77102e-06
1.77102e-06
1.77102e-06
1.77102e-06
1.77418e-06
1.77623e-06
1.77607e-06
1.77387e-06
1.77102e-06
1.77102e-06
1.77102e-06
1.77102e-06
1.77102e-06
1.77102e-06
1.77102e-06
1.77343e-06
1.77444e-06
1.77639e-06
1.77641e-06
1.77454e-06
1.77376e-06
1.77102e-06
1.77102e-06
1.77102e-06
1.77102e-06
1.77102e-06
1.7734e-06
1.77423e-06
1.77481e-06
1.77621e-06
1.77452e-06
1.77378e-06
1.77102e-06
1.77102e-06
1.77102e-06
1.77343e-06
1.77423e-06
1.77479e-06
1.77648e-06
1.77625e-06
1.77462e-06
1.77426e-06
1.77413e-06
1.77418e-06
1.77444e-06
1.77481e-06
1.77648e-06
1.77646e-06
1.77628e-06
1.77621e-06
1.77623e-06
1.77639e-06
1.75873e-06
1.75688e-06
1.75672e-06
1.75678e-06
1.7584e-06
1.75874e-06
1.7589e-06
1.7571e-06
1.75645e-06
1.75335e-06
1.75335e-06
1.75335e-06
1.7562e-06
1.75687e-06
1.75854e-06
1.7571e-06
1.7564e-06
1.75335e-06
1.75335e-06
1.75335e-06
1.75335e-06
1.75335e-06
1.75609e-06
1.75685e-06
1.75858e-06
1.75873e-06
1.75645e-06
1.75335e-06
1.75335e-06
1.75335e-06
1.75335e-06
1.75335e-06
1.75335e-06
1.75335e-06
1.75611e-06
1.75695e-06
1.75879e-06
1.75688e-06
1.75335e-06
1.75335e-06
1.75335e-06
1.75335e-06
1.75335e-06
1.75335e-06
1.75335e-06
1.75335e-06
1.75335e-06
1.75659e-06
1.75861e-06
1.75672e-06
1.75335e-06
1.75335e-06
1.75335e-06
1.75335e-06
1.75335e-06
1.75335e-06
1.75335e-06
1.75335e-06
1.75335e-06
1.75646e-06
1.75854e-06
1.75678e-06
1.75335e-06
1.75335e-06
1.75335e-06
1.75335e-06