/*--------------------------------*- C++ -*----------------------------------*\
| =========                 |                                                 |
| \\      /  F ield         | OpenFOAM: The Open Source CFD Toolbox           |
|  \\    /   O peration     | Version:  v2012                                 |
|   \\  /    A nd           | Website:  www.openfoam.com                      |
|    \\/     M anipulation  |                                                 |
\*---------------------------------------------------------------------------*/
FoamFile
{
    version     2.0;
    format      ascii;
    class       volScalarField;
    location    "12";
    object      p;
}
// * * * * * * * * * * * * * * * * * * * * * * * * * * * * * * * * * * * * * //

dimensions      [0 2 -2 0 0 0 0];


internalField   nonuniform List<scalar> 
292667
(
1.80898e-06
1.79438e-06
1.79305e-06
1.79318e-06
1.7951e-06
1.81003e-06
1.7947e-06
1.79008e-06
1.78748e-06
1.78644e-06
1.78658e-06
1.78797e-06
1.79104e-06
1.79616e-06
1.7947e-06
1.78878e-06
1.7853e-06
1.7834e-06
1.78261e-06
1.78272e-06
1.78376e-06
1.78599e-06
1.79001e-06
1.79659e-06
1.80897e-06
1.79008e-06
1.7853e-06
1.78255e-06
1.78101e-06
1.78036e-06
1.78045e-06
1.78131e-06
1.7831e-06
1.78625e-06
1.79175e-06
1.81005e-06
1.79437e-06
1.78748e-06
1.7834e-06
1.78101e-06
1.77966e-06
1.77908e-06
1.77916e-06
1.77992e-06
1.7815e-06
1.78422e-06
1.78892e-06
1.80066e-06
1.79305e-06
1.78644e-06
1.78261e-06
1.78036e-06
1.77908e-06
1.77852e-06
1.7786e-06
1.77932e-06
1.78081e-06
1.78338e-06
1.78778e-06
1.79774e-06
1.79318e-06
1.78658e-06
1.78272e-06
1.78045e-06
1.77916e-06
1.7786e-06
1.77867e-06
1.77941e-06
1.78091e-06
1.78349e-06
1.78793e-06
1.79799e-06
1.7951e-06
1.78797e-06
1.78376e-06
1.78131e-06
1.77992e-06
1.77932e-06
1.77941e-06
1.78019e-06
1.7818e-06
1.78461e-06
1.78945e-06
1.80118e-06
1.81003e-06
1.79104e-06
1.78599e-06
1.7831e-06
1.7815e-06
1.78081e-06
1.78091e-06
1.7818e-06
1.78368e-06
1.787e-06
1.79274e-06
1.81052e-06
1.79616e-06
1.79001e-06
1.78625e-06
1.78422e-06
1.78338e-06
1.78349e-06
1.78461e-06
1.787e-06
1.7913e-06
1.80157e-06
1.79659e-06
1.79175e-06
1.78892e-06
1.78778e-06
1.78793e-06
1.78945e-06
1.79274e-06
1.80157e-06
1.81005e-06
1.80066e-06
1.79774e-06
1.79799e-06
1.80118e-06
1.81052e-06
1.76771e-06
1.76604e-06
1.76597e-06
1.76604e-06
1.76744e-06
1.76753e-06
1.7678e-06
1.76642e-06
1.76585e-06
1.76343e-06
1.76337e-06
1.76343e-06
1.76585e-06
1.76622e-06
1.7676e-06
1.76642e-06
1.76586e-06
1.7636e-06
1.76341e-06
1.7634e-06
1.76341e-06
1.76359e-06
1.76576e-06
1.76623e-06
1.76757e-06
1.76771e-06
1.76585e-06
1.7636e-06
1.76347e-06
1.76343e-06
1.76341e-06
1.76343e-06
1.76347e-06
1.76359e-06
1.76574e-06
1.76627e-06
1.76781e-06
1.76604e-06
1.76343e-06
1.76341e-06
1.76343e-06
1.7634e-06
1.76338e-06
1.7634e-06
1.76343e-06
1.76341e-06
1.76343e-06
1.76615e-06
1.76756e-06
1.76597e-06
1.76337e-06
1.7634e-06
1.76341e-06
1.76338e-06
1.76337e-06
1.76338e-06
1.76341e-06
1.76339e-06
1.76337e-06
1.76603e-06
1.76722e-06
1.76604e-06
1.76343e-06
1.76341e-06
1.76343e-06
1.7634e-06
1.76338e-06
1.7634e-06
1.76343e-06
1.76341e-06
1.76343e-06
1.76608e-06
1.7673e-06
1.76744e-06
1.76585e-06
1.76359e-06
1.76347e-06
1.76343e-06
1.76341e-06
1.76343e-06
1.76347e-06
1.76359e-06
1.76564e-06
1.76622e-06
1.76766e-06
1.76753e-06
1.76622e-06
1.76576e-06
1.76359e-06
1.76341e-06
1.76339e-06
1.76341e-06
1.76359e-06
1.76562e-06
1.76609e-06
1.76636e-06
1.7676e-06
1.76623e-06
1.76574e-06
1.76343e-06
1.76337e-06
1.76343e-06
1.76564e-06
1.76609e-06
1.76647e-06
1.76778e-06
1.76757e-06
1.76627e-06
1.76615e-06
1.76603e-06
1.76608e-06
1.76622e-06
1.76636e-06
1.76779e-06
1.76781e-06
1.76756e-06
1.76722e-06
1.7673e-06
1.76766e-06
1.75253e-06
1.75099e-06
1.75096e-06
1.75096e-06
1.75236e-06
1.75254e-06
1.75264e-06
1.75122e-06
1.75067e-06
1.74821e-06
1.74819e-06
1.74821e-06
1.75069e-06
1.75109e-06
1.75242e-06
1.75122e-06
1.75068e-06
1.74827e-06
1.74824e-06
1.74826e-06
1.74823e-06
1.74827e-06
1.75062e-06
1.75106e-06
1.75244e-06
1.75253e-06
1.75067e-06
1.74827e-06
1.74827e-06
1.74832e-06
1.74833e-06
1.74832e-06
1.74826e-06
1.74827e-06
1.7506e-06
1.75115e-06
1.7526e-06
1.75099e-06
1.74821e-06
1.74824e-06
1.74832e-06
1.74835e-06
1.74836e-06
1.74835e-06
1.74832e-06
1.74824e-06
1.74821e-06
1.75104e-06
1.75259e-06
1.75096e-06
1.74819e-06
1.74826e-06
1.74833e-06
1.74836e-06
1.74837e-06
1.74836e-06
1.74833e-06
1.74826e-06
1.74819e-06
1.75096e-06
1.75252e-06
1.75096e-06
1.74821e-06
1.74824e-06
1.74832e-06
1.74835e-06
1.74836e-06
1.74835e-06
1.74832e-06
1.74823e-06
1.74821e-06
1.751e-06
1.75252e-06
1.75236e-06
1.75069e-06
1.74827e-06
1.74826e-06
1.74832e-06
1.74833e-06
1.74832e-06
1.74826e-06
1.74827e-06
1.75057e-06
1.75111e-06
1.75263e-06
1.75253e-06
1.75109e-06
1.75062e-06
1.74827e-06
1.74824e-06
1.74826e-06
1.74823e-06
1.74827e-06
1.75054e-06
1.75094e-06
1.75127e-06
1.75242e-06
1.75106e-06
1.7506e-06
1.74821e-06
1.74819e-06
1.74821e-06
1.75057e-06
1.75094e-06
1.75125e-06
1.75265e-06
1.75243e-06
1.75115e-06
1.75104e-06
1.75096e-06
1.751e-06
1.75111e-06
1.75127e-06
1.75265e-06
1.7526e-06
1.75259e-06
1.75252e-06
1.75252e-06
1.75263e-06
1.7376e-06
1.73603e-06
1.73597e-06
1.73599e-06
1.73742e-06
1.73761e-06
1.7377e-06
1.73626e-06
1.73564e-06
1.73315e-06
1.73315e-06
1.73315e-06
1.73567e-06
1.73614e-06
1.73749e-06
1.73626e-06
1.73563e-06
1.73319e-06
1.73319e-06
1.73321e-06
1.73319e-06
1.73319e-06
1.73561e-06
1.73611e-06
1.7375e-06
1.7376e-06
1.73564e-06
1.73319e-06
1.73321e-06
1.73325e-06
1.73326e-06
1.73325e-06
1.7332e-06
1.73319e-06
1.73561e-06
1.73621e-06
1.73767e-06
1.73603e-06
1.73315e-06
1.73319e-06
1.73325e-06
1.73328e-06
1.73329e-06
1.73328e-06
1.73325e-06
1.73319e-06
1.73315e-06
1.73608e-06
1.73765e-06
1.73597e-06
1.73315e-06
1.73321e-06
1.73326e-06
1.73329e-06
1.7333e-06
1.73329e-06
1.73326e-06
1.73321e-06
1.73315e-06
1.73599e-06
1.73757e-06
1.73599e-06
1.73315e-06
1.73319e-06
1.73325e-06
1.73328e-06
1.73329e-06
1.73328e-06
1.73325e-06
1.73319e-06
1.73315e-06
1.73603e-06
1.73757e-06
1.73742e-06
1.73567e-06
1.73319e-06
1.73321e-06
1.73325e-06
1.73326e-06
1.73325e-06
1.7332e-06
1.73319e-06
1.7356e-06
1.73616e-06
1.73769e-06
1.73761e-06
1.73614e-06
1.73561e-06
1.73319e-06
1.73319e-06
1.73321e-06
1.73319e-06
1.73319e-06
1.73557e-06
1.73599e-06
1.73633e-06
1.73749e-06
1.73611e-06
1.73561e-06
1.73315e-06
1.73315e-06
1.73315e-06
1.7356e-06
1.73599e-06
1.7363e-06
1.73772e-06
1.7375e-06
1.73621e-06
1.73608e-06
1.73599e-06
1.73603e-06
1.73616e-06
1.73633e-06
1.73772e-06
1.73767e-06
1.73765e-06
1.73757e-06
1.73757e-06
1.73769e-06
1.72264e-06
1.72106e-06
1.72099e-06
1.72102e-06
1.72246e-06
1.72265e-06
1.72275e-06
1.72129e-06
1.72065e-06
1.71815e-06
1.71815e-06
1.71815e-06
1.72068e-06
1.72117e-06
1.72253e-06
1.72129e-06
1.72062e-06
1.71817e-06
1.71817e-06
1.71819e-06
1.71817e-06
1.71817e-06
1.72062e-06
1.72115e-06
1.72254e-06
1.72264e-06
1.72065e-06
1.71817e-06
1.71818e-06
1.71821e-06
1.71822e-06
1.71821e-06
1.71818e-06
1.71817e-06
1.72063e-06
1.72125e-06
1.72271e-06
1.72106e-06
1.71815e-06
1.71817e-06
1.71821e-06
1.71824e-06
1.71825e-06
1.71824e-06
1.71821e-06
1.71817e-06
1.71815e-06
1.72111e-06
1.72269e-06
1.72099e-06
1.71815e-06
1.71819e-06
1.71822e-06
1.71825e-06
1.71825e-06
1.71825e-06
1.71822e-06
1.71819e-06
1.71815e-06
1.72102e-06
1.72261e-06
1.72102e-06
1.71815e-06
1.71817e-06
1.71821e-06
1.71824e-06
1.71825e-06
1.71824e-06
1.71821e-06
1.71817e-06
1.71815e-06
1.72106e-06
1.72261e-06
1.72246e-06
1.72068e-06
1.71817e-06
1.71818e-06
1.71821e-06
1.71822e-06
1.71821e-06
1.71818e-06
1.71817e-06
1.72063e-06
1.7212e-06
1.72274e-06
1.72265e-06
1.72117e-06
1.72062e-06
1.71817e-06
1.71817e-06
1.71819e-06
1.71817e-06
1.71817e-06
1.7206e-06
1.72102e-06
1.72137e-06
1.72253e-06
1.72115e-06
1.72063e-06
1.71815e-06
1.71815e-06
1.71815e-06
1.72063e-06
1.72102e-06
1.72134e-06
1.72277e-06
1.72254e-06
1.72125e-06
1.72111e-06
1.72102e-06
1.72106e-06
1.7212e-06
1.72137e-06
1.72276e-06
1.72271e-06
1.72269e-06
1.72261e-06
1.72261e-06
1.72274e-06
1.70768e-06
1.70609e-06
1.70602e-06
1.70605e-06
1.70749e-06
1.70768e-06
1.70778e-06
1.70632e-06
1.70567e-06
1.70316e-06
1.70316e-06
1.70316e-06
1.7057e-06
1.7062e-06
1.70756e-06
1.70632e-06
1.70564e-06
1.70317e-06
1.70318e-06
1.70319e-06
1.70318e-06
1.70317e-06
1.70564e-06
1.70618e-06
1.70758e-06
1.70768e-06
1.70567e-06
1.70317e-06
1.70319e-06
1.7032e-06
1.70321e-06
1.7032e-06
1.70319e-06
1.70317e-06
1.70566e-06
1.70629e-06
1.70775e-06
1.70609e-06
1.70316e-06
1.70318e-06
1.7032e-06
1.70322e-06
1.70322e-06
1.70322e-06
1.7032e-06
1.70318e-06
1.70316e-06
1.70614e-06
1.70773e-06
1.70602e-06
1.70316e-06
1.70319e-06
1.70321e-06
1.70322e-06
1.70323e-06
1.70322e-06
1.70321e-06
1.70319e-06
1.70316e-06
1.70605e-06
1.70764e-06
1.70605e-06
1.70316e-06
1.70318e-06
1.7032e-06
1.70322e-06
1.70322e-06
1.70322e-06
1.7032e-06
1.70318e-06
1.70316e-06
1.70609e-06
1.70765e-06
1.70749e-06
1.7057e-06
1.70317e-06
1.70319e-06
1.7032e-06
1.70321e-06
1.7032e-06
1.70319e-06
1.70317e-06
1.70566e-06
1.70623e-06
1.70777e-06
1.70768e-06
1.7062e-06
1.70564e-06
1.70317e-06
1.70318e-06
1.70319e-06
1.70318e-06
1.70317e-06
1.70563e-06
1.70606e-06
1.70641e-06
1.70756e-06
1.70618e-06
1.70566e-06
1.70316e-06
1.70316e-06
1.70316e-06
1.70566e-06
1.70606e-06
1.70637e-06
1.7078e-06
1.70758e-06
1.70629e-06
1.70614e-06
1.70605e-06
1.70609e-06
1.70623e-06
1.70641e-06
1.7078e-06
1.70775e-06
1.70773e-06
1.70764e-06
1.70765e-06
1.70777e-06
1.69271e-06
1.69112e-06
1.69105e-06
1.69108e-06
1.69252e-06
1.69271e-06
1.69281e-06
1.69135e-06
1.6907e-06
1.68819e-06
1.68819e-06
1.68819e-06
1.69073e-06
1.69123e-06
1.6926e-06
1.69135e-06
1.69067e-06
1.68819e-06
1.6882e-06
1.6882e-06
1.6882e-06
1.68819e-06
1.69066e-06
1.69121e-06
1.69261e-06
1.69271e-06
1.6907e-06
1.68819e-06
1.6882e-06
1.68821e-06
1.68821e-06
1.68821e-06
1.6882e-06
1.68819e-06
1.69068e-06
1.69132e-06
1.69278e-06
1.69112e-06
1.68819e-06
1.6882e-06
1.68821e-06
1.68822e-06
1.68822e-06
1.68822e-06
1.68821e-06
1.6882e-06
1.68819e-06
1.69118e-06
1.69276e-06
1.69105e-06
1.68819e-06
1.6882e-06
1.68821e-06
1.68822e-06
1.68823e-06
1.68822e-06
1.68821e-06
1.6882e-06
1.68819e-06
1.69108e-06
1.69268e-06
1.69108e-06
1.68819e-06
1.6882e-06
1.68821e-06
1.68822e-06
1.68822e-06
1.68822e-06
1.68821e-06
1.6882e-06
1.68819e-06
1.69112e-06
1.69268e-06
1.69252e-06
1.69073e-06
1.68819e-06
1.6882e-06
1.68821e-06
1.68821e-06
1.68821e-06
1.6882e-06
1.68819e-06
1.69069e-06
1.69127e-06
1.6928e-06
1.69271e-06
1.69123e-06
1.69066e-06
1.68819e-06
1.6882e-06
1.6882e-06
1.6882e-06
1.68819e-06
1.69065e-06
1.69109e-06
1.69144e-06
1.6926e-06
1.69121e-06
1.69068e-06
1.68819e-06
1.68819e-06
1.68819e-06
1.69069e-06
1.69109e-06
1.6914e-06
1.69283e-06
1.69261e-06
1.69132e-06
1.69118e-06
1.69108e-06
1.69112e-06
1.69127e-06
1.69144e-06
1.69283e-06
1.69278e-06
1.69276e-06
1.69268e-06
1.69268e-06
1.6928e-06
1.67774e-06
1.67615e-06
1.67608e-06
1.67611e-06
1.67755e-06
1.67774e-06
1.67784e-06
1.67638e-06
1.67573e-06
1.67321e-06
1.67322e-06
1.67321e-06
1.67576e-06
1.67626e-06
1.67763e-06
1.67638e-06
1.67569e-06
1.67322e-06
1.67322e-06
1.67322e-06
1.67322e-06
1.67322e-06
1.67569e-06
1.67624e-06
1.67764e-06
1.67774e-06
1.67573e-06
1.67322e-06
1.67322e-06
1.67323e-06
1.67323e-06
1.67323e-06
1.67322e-06
1.67322e-06
1.67571e-06
1.67635e-06
1.67781e-06
1.67615e-06
1.67321e-06
1.67322e-06
1.67323e-06
1.67323e-06
1.67323e-06
1.67323e-06
1.67323e-06
1.67322e-06
1.67321e-06
1.67621e-06
1.67779e-06
1.67608e-06
1.67322e-06
1.67322e-06
1.67323e-06
1.67323e-06
1.67324e-06
1.67323e-06
1.67323e-06
1.67322e-06
1.67322e-06
1.67611e-06
1.67771e-06
1.67611e-06
1.67321e-06
1.67322e-06
1.67323e-06
1.67323e-06
1.67323e-06
1.67323e-06
1.67323e-06
1.67322e-06
1.67321e-06
1.67615e-06
1.67771e-06
1.67755e-06
1.67576e-06
1.67322e-06
1.67322e-06
1.67323e-06
1.67323e-06
1.67323e-06
1.67322e-06
1.67322e-06
1.67572e-06
1.6763e-06
1.67783e-06
1.67774e-06
1.67626e-06
1.67569e-06
1.67322e-06
1.67322e-06
1.67322e-06
1.67322e-06
1.67322e-06
1.67568e-06
1.67612e-06
1.67647e-06
1.67763e-06
1.67624e-06
1.67571e-06
1.67321e-06
1.67322e-06
1.67321e-06
1.67572e-06
1.67612e-06
1.67643e-06
1.67786e-06
1.67764e-06
1.67635e-06
1.67621e-06
1.67611e-06
1.67615e-06
1.6763e-06
1.67647e-06
1.67786e-06
1.67781e-06
1.67779e-06
1.67771e-06
1.67771e-06
1.67783e-06
1.66277e-06
1.66118e-06
1.66111e-06
1.66114e-06
1.66258e-06
1.66277e-06
1.66287e-06
1.66141e-06
1.66076e-06
1.65824e-06
1.65824e-06
1.65824e-06
1.66079e-06
1.66129e-06
1.66266e-06
1.66141e-06
1.66072e-06
1.65824e-06
1.65825e-06
1.65825e-06
1.65825e-06
1.65824e-06
1.66072e-06
1.66127e-06
1.66267e-06
1.66277e-06
1.66076e-06
1.65824e-06
1.65825e-06
1.65825e-06
1.65825e-06
1.65825e-06
1.65825e-06
1.65824e-06
1.66074e-06
1.66138e-06
1.66284e-06
1.66118e-06
1.65824e-06
1.65825e-06
1.65825e-06
1.65825e-06
1.65825e-06
1.65825e-06
1.65825e-06
1.65825e-06
1.65824e-06
1.66124e-06
1.66282e-06
1.66111e-06
1.65824e-06
1.65825e-06
1.65825e-06
1.65825e-06
1.65825e-06
1.65825e-06
1.65825e-06
1.65825e-06
1.65824e-06
1.66114e-06
1.66274e-06
1.66114e-06
1.65824e-06
1.65825e-06
1.65825e-06
1.65825e-06
1.65825e-06
1.65825e-06
1.65825e-06
1.65825e-06
1.65824e-06
1.66118e-06
1.66274e-06
1.66258e-06
1.66079e-06
1.65824e-06
1.65825e-06
1.65825e-06
1.65825e-06
1.65825e-06
1.65825e-06
1.65824e-06
1.66075e-06
1.66133e-06
1.66286e-06
1.66277e-06
1.66129e-06
1.66072e-06
1.65824e-06
1.65825e-06
1.65825e-06
1.65825e-06
1.65824e-06
1.66071e-06
1.66115e-06
1.6615e-06
1.66266e-06
1.66127e-06
1.66074e-06
1.65824e-06
1.65824e-06
1.65824e-06
1.66075e-06
1.66115e-06
1.66146e-06
1.66289e-06
1.66267e-06
1.66138e-06
1.66124e-06
1.66114e-06
1.66118e-06
1.66133e-06
1.6615e-06
1.66289e-06
1.66284e-06
1.66282e-06
1.66274e-06
1.66274e-06
1.66286e-06
1.6478e-06
1.64621e-06
1.64614e-06
1.64617e-06
1.64761e-06
1.6478e-06
1.6479e-06
1.64644e-06
1.64579e-06
1.64327e-06
1.64327e-06
1.64327e-06
1.64582e-06
1.64632e-06
1.64769e-06
1.64644e-06
1.64575e-06
1.64327e-06
1.64327e-06
1.64327e-06
1.64327e-06
1.64327e-06
1.64575e-06
1.6463e-06
1.6477e-06
1.6478e-06
1.64579e-06
1.64327e-06
1.64327e-06
1.64328e-06
1.64328e-06
1.64328e-06
1.64327e-06
1.64327e-06
1.64577e-06
1.64641e-06
1.64787e-06
1.64621e-06
1.64327e-06
1.64327e-06
1.64328e-06
1.64328e-06
1.64328e-06
1.64328e-06
1.64328e-06
1.64327e-06
1.64327e-06
1.64626e-06
1.64785e-06
1.64614e-06
1.64327e-06
1.64327e-06
1.64328e-06
1.64328e-06
1.64328e-06
1.64328e-06
1.64328e-06
1.64327e-06
1.64327e-06
1.64617e-06
1.64777e-06
1.64617e-06
1.64327e-06
1.64327e-06
1.64328e-06
1.64328e-06
1.64328e-06
1.64328e-06
1.64328e-06
1.64327e-06
1.64327e-06
1.64621e-06
1.64777e-06
1.64761e-06
1.64582e-06
1.64327e-06
1.64327e-06
1.64328e-06
1.64328e-06
1.64328e-06
1.64327e-06
1.64327e-06
1.64578e-06
1.64636e-06
1.64789e-06
1.6478e-06
1.64632e-06
1.64575e-06
1.64327e-06
1.64327e-06
1.64327e-06
1.64327e-06
1.64327e-06
1.64574e-06
1.64618e-06
1.64653e-06
1.64769e-06
1.6463e-06
1.64577e-06
1.64327e-06
1.64327e-06
1.64327e-06
1.64578e-06
1.64618e-06
1.64649e-06
1.64792e-06
1.6477e-06
1.64641e-06
1.64626e-06
1.64617e-06
1.64621e-06
1.64636e-06
1.64653e-06
1.64792e-06
1.64787e-06
1.64785e-06
1.64777e-06
1.64777e-06
1.64789e-06
1.63283e-06
1.63124e-06
1.63117e-06
1.6312e-06
1.63264e-06
1.63283e-06
1.63293e-06
1.63147e-06
1.63082e-06
1.6283e-06
1.6283e-06
1.6283e-06
1.63085e-06
1.63135e-06
1.63272e-06
1.63147e-06
1.63078e-06
1.6283e-06
1.6283e-06
1.6283e-06
1.6283e-06
1.6283e-06
1.63078e-06
1.63133e-06
1.63273e-06
1.63283e-06
1.63082e-06
1.6283e-06
1.6283e-06
1.6283e-06
1.6283e-06
1.6283e-06
1.6283e-06
1.6283e-06
1.6308e-06
1.63144e-06
1.6329e-06
1.63124e-06
1.6283e-06
1.6283e-06
1.6283e-06
1.6283e-06
1.6283e-06
1.6283e-06
1.6283e-06
1.6283e-06
1.6283e-06
1.63129e-06
1.63288e-06
1.63117e-06
1.6283e-06
1.6283e-06
1.6283e-06
1.6283e-06
1.6283e-06
1.6283e-06
1.6283e-06
1.6283e-06
1.6283e-06
1.6312e-06
1.6328e-06
1.6312e-06
1.6283e-06
1.6283e-06
1.6283e-06
1.6283e-06
1.6283e-06
1.6283e-06
1.6283e-06
1.6283e-06
1.6283e-06
1.63124e-06
1.6328e-06
1.63264e-06
1.63085e-06
1.6283e-06
1.6283e-06
1.6283e-06
1.6283e-06
1.6283e-06
1.6283e-06
1.6283e-06
1.63081e-06
1.63139e-06
1.63292e-06
1.63283e-06
1.63135e-06
1.63078e-06
1.6283e-06
1.6283e-06
1.6283e-06
1.6283e-06
1.6283e-06
1.63077e-06
1.63121e-06
1.63156e-06
1.63272e-06
1.63133e-06
1.6308e-06
1.6283e-06
1.6283e-06
1.6283e-06
1.63081e-06
1.63121e-06
1.63152e-06
1.63295e-06
1.63273e-06
1.63144e-06
1.63129e-06
1.6312e-06
1.63124e-06
1.63139e-06
1.63156e-06
1.63295e-06
1.6329e-06
1.63288e-06
1.6328e-06
1.6328e-06
1.63292e-06
1.61786e-06
1.61627e-06
1.6162e-06
1.61623e-06
1.61767e-06
1.61786e-06
1.61796e-06
1.6165e-06
1.61585e-06
1.61333e-06
1.61333e-06
1.61333e-06
1.61588e-06
1.61638e-06
1.61775e-06
1.6165e-06
1.61581e-06
1.61333e-06
1.61333e-06
1.61333e-06
1.61333e-06
1.61333e-06
1.61581e-06
1.61636e-06
1.61776e-06
1.61786e-06
1.61585e-06
1.61333e-06
1.61333e-06
1.61333e-06
1.61333e-06
1.61333e-06
1.61333e-06
1.61333e-06
1.61583e-06
1.61647e-06
1.61793e-06
1.61627e-06
1.61333e-06
1.61333e-06
1.61333e-06
1.61333e-06
1.61333e-06
1.61333e-06
1.61333e-06
1.61333e-06
1.61333e-06
1.61632e-06
1.61791e-06
1.6162e-06
1.61333e-06
1.61333e-06
1.61333e-06
1.61333e-06
1.61333e-06
1.61333e-06
1.61333e-06
1.61333e-06
1.61333e-06
1.61623e-06
1.61783e-06
1.61623e-06
1.61333e-06
1.61333e-06
1.61333e-06
1.61333e-06
1.61333e-06
1.61333e-06
1.61333e-06
1.61333e-06
1.61333e-06
1.61627e-06
1.61783e-06
1.61767e-06
1.61588e-06
1.61333e-06
1.61333e-06
1.61333e-06
1.61333e-06
1.61333e-06
1.61333e-06
1.61333e-06
1.61584e-06
1.61642e-06
1.61795e-06
1.61786e-06
1.61638e-06
1.61581e-06
1.61333e-06
1.61333e-06
1.61333e-06
1.61333e-06
1.61333e-06
1.6158e-06
1.61624e-06
1.61659e-06
1.61775e-06
1.61636e-06
1.61583e-06
1.61333e-06
1.61333e-06
1.61333e-06
1.61584e-06
1.61624e-06
1.61655e-06
1.61798e-06
1.61776e-06
1.61647e-06
1.61632e-06
1.61623e-06
1.61627e-06
1.61642e-06
1.61659e-06
1.61798e-06
1.61793e-06
1.61791e-06
1.61783e-06
1.61783e-06
1.61795e-06
1.60289e-06
1.6013e-06
1.60123e-06
1.60126e-06
1.6027e-06
1.60289e-06
1.60299e-06
1.60153e-06
1.60088e-06
1.59836e-06
1.59836e-06
1.59836e-06
1.60091e-06
1.60141e-06
1.60278e-06
1.60153e-06
1.60084e-06
1.59836e-06
1.59836e-06
1.59836e-06
1.59836e-06
1.59836e-06
1.60084e-06
1.60139e-06
1.60279e-06
1.60289e-06
1.60088e-06
1.59836e-06
1.59836e-06
1.59836e-06
1.59836e-06
1.59836e-06
1.59836e-06
1.59836e-06
1.60086e-06
1.6015e-06
1.60296e-06
1.6013e-06
1.59836e-06
1.59836e-06
1.59836e-06
1.59836e-06
1.59836e-06
1.59836e-06
1.59836e-06
1.59836e-06
1.59836e-06
1.60135e-06
1.60294e-06
1.60123e-06
1.59836e-06
1.59836e-06
1.59836e-06
1.59836e-06
1.59836e-06
1.59836e-06
1.59836e-06
1.59836e-06
1.59836e-06
1.60126e-06
1.60286e-06
1.60126e-06
1.59836e-06
1.59836e-06
1.59836e-06
1.59836e-06
1.59836e-06
1.59836e-06
1.59836e-06
1.59836e-06
1.59836e-06
1.6013e-06
1.60286e-06
1.6027e-06
1.60091e-06
1.59836e-06
1.59836e-06
1.59836e-06
1.59836e-06
1.59836e-06
1.59836e-06
1.59836e-06
1.60087e-06
1.60145e-06
1.60298e-06
1.60289e-06
1.60141e-06
1.60084e-06
1.59836e-06
1.59836e-06
1.59836e-06
1.59836e-06
1.59836e-06
1.60083e-06
1.60127e-06
1.60162e-06
1.60278e-06
1.60139e-06
1.60086e-06
1.59836e-06
1.59836e-06
1.59836e-06
1.60087e-06
1.60127e-06
1.60158e-06
1.60301e-06
1.60279e-06
1.6015e-06
1.60135e-06
1.60126e-06
1.6013e-06
1.60145e-06
1.60162e-06
1.60301e-06
1.60296e-06
1.60294e-06
1.60286e-06
1.60286e-06
1.60298e-06
1.58792e-06
1.58633e-06
1.58626e-06
1.58629e-06
1.58773e-06
1.58792e-06
1.58802e-06
1.58656e-06
1.5859e-06
1.58339e-06
1.58339e-06
1.58339e-06
1.58594e-06
1.58644e-06
1.58781e-06
1.58656e-06
1.58587e-06
1.58339e-06
1.58339e-06
1.58339e-06
1.58339e-06
1.58339e-06
1.58587e-06
1.58642e-06
1.58782e-06
1.58792e-06
1.58591e-06
1.58339e-06
1.58339e-06
1.58339e-06
1.58339e-06
1.58339e-06
1.58339e-06
1.58339e-06
1.58589e-06
1.58653e-06
1.58799e-06
1.58633e-06
1.58339e-06
1.58339e-06
1.58339e-06
1.58339e-06
1.58339e-06
1.58339e-06
1.58339e-06
1.58339e-06
1.58339e-06
1.58638e-06
1.58797e-06
1.58626e-06
1.58339e-06
1.58339e-06
1.58339e-06
1.58339e-06
1.58339e-06
1.58339e-06
1.58339e-06
1.58339e-06
1.58339e-06
1.58629e-06
1.58789e-06
1.58629e-06
1.58339e-06
1.58339e-06
1.58339e-06
1.58339e-06
1.58339e-06
1.58339e-06
1.58339e-06
1.58339e-06
1.58339e-06
1.58633e-06
1.58789e-06
1.58773e-06
1.58594e-06
1.58339e-06
1.58339e-06
1.58339e-06
1.58339e-06
1.58339e-06
1.58339e-06
1.58339e-06
1.5859e-06
1.58648e-06
1.58801e-06
1.58792e-06
1.58644e-06
1.58587e-06
1.58339e-06
1.58339e-06
1.58339e-06
1.58339e-06
1.58339e-06
1.58586e-06
1.5863e-06
1.58665e-06
1.58781e-06
1.58642e-06
1.58589e-06
1.58339e-06
1.58339e-06
1.58339e-06
1.5859e-06
1.5863e-06
1.58661e-06
1.58804e-06
1.58782e-06
1.58653e-06
1.58638e-06
1.58629e-06
1.58633e-06
1.58648e-06
1.58665e-06
1.58804e-06
1.58799e-06
1.58797e-06
1.58788e-06
1.58789e-06
1.58801e-06
1.57295e-06
1.57136e-06
1.57129e-06
1.57131e-06
1.57276e-06
1.57295e-06
1.57305e-06
1.57159e-06
1.57093e-06
1.56842e-06
1.56842e-06
1.56842e-06
1.57097e-06
1.57147e-06
1.57284e-06
1.57159e-06
1.5709e-06
1.56842e-06
1.56842e-06
1.56842e-06
1.56842e-06
1.56842e-06
1.5709e-06
1.57145e-06
1.57285e-06
1.57295e-06
1.57093e-06
1.56842e-06
1.56842e-06
1.56842e-06
1.56842e-06
1.56842e-06
1.56842e-06
1.56842e-06
1.57092e-06
1.57156e-06
1.57302e-06
1.57136e-06
1.56842e-06
1.56842e-06
1.56842e-06
1.56842e-06
1.56842e-06
1.56842e-06
1.56842e-06
1.56842e-06
1.56842e-06
1.57141e-06
1.573e-06
1.57129e-06
1.56842e-06
1.56842e-06
1.56842e-06
1.56842e-06
1.56842e-06
1.56842e-06
1.56842e-06
1.56842e-06
1.56842e-06
1.57132e-06
1.57291e-06
1.57131e-06
1.56842e-06
1.56842e-06
1.56842e-06
1.56842e-06
1.56842e-06
1.56842e-06
1.56842e-06
1.56842e-06
1.56842e-06
1.57136e-06
1.57292e-06
1.57276e-06
1.57097e-06
1.56842e-06
1.56842e-06
1.56842e-06
1.56842e-06
1.56842e-06
1.56842e-06
1.56842e-06
1.57093e-06
1.57151e-06
1.57304e-06
1.57295e-06
1.57147e-06
1.5709e-06
1.56842e-06
1.56842e-06
1.56842e-06
1.56842e-06
1.56842e-06
1.57089e-06
1.57132e-06
1.57168e-06
1.57284e-06
1.57145e-06
1.57092e-06
1.56842e-06
1.56842e-06
1.56842e-06
1.57093e-06
1.57132e-06
1.57164e-06
1.57307e-06
1.57285e-06
1.57156e-06
1.57141e-06
1.57132e-06
1.57136e-06
1.5715e-06
1.57168e-06
1.57307e-06
1.57302e-06
1.573e-06
1.57291e-06
1.57292e-06
1.57304e-06
1.55798e-06
1.55639e-06
1.55632e-06
1.55634e-06
1.55779e-06
1.55798e-06
1.55808e-06
1.55662e-06
1.55596e-06
1.55345e-06
1.55345e-06
1.55345e-06
1.55599e-06
1.5565e-06
1.55786e-06
1.55662e-06
1.55593e-06
1.55345e-06
1.55345e-06
1.55345e-06
1.55345e-06
1.55345e-06
1.55593e-06
1.55648e-06
1.55788e-06
1.55798e-06
1.55596e-06
1.55345e-06
1.55345e-06
1.55345e-06
1.55345e-06
1.55345e-06
1.55345e-06
1.55345e-06
1.55595e-06
1.55659e-06
1.55805e-06
1.55639e-06
1.55345e-06
1.55345e-06
1.55345e-06
1.55345e-06
1.55345e-06
1.55345e-06
1.55345e-06
1.55345e-06
1.55345e-06
1.55644e-06
1.55803e-06
1.55632e-06
1.55345e-06
1.55345e-06
1.55345e-06
1.55345e-06
1.55345e-06
1.55345e-06
1.55345e-06
1.55345e-06
1.55345e-06
1.55635e-06
1.55794e-06
1.55634e-06
1.55345e-06
1.55345e-06
1.55345e-06
1.55345e-06
1.55345e-06
1.55345e-06
1.55345e-06
1.55345e-06
1.55345e-06
1.55639e-06
1.55795e-06
1.55779e-06
1.55599e-06
1.55345e-06
1.55345e-06
1.55345e-06
1.55345e-06
1.55345e-06
1.55345e-06
1.55345e-06
1.55596e-06
1.55653e-06
1.55807e-06
1.55798e-06
1.5565e-06
1.55593e-06
1.55345e-06
1.55345e-06
1.55345e-06
1.55345e-06
1.55345e-06
1.55592e-06
1.55635e-06
1.55671e-06
1.55786e-06
1.55648e-06
1.55595e-06
1.55345e-06
1.55345e-06
1.55345e-06
1.55596e-06
1.55635e-06
1.55667e-06
1.5581e-06
1.55788e-06
1.55659e-06
1.55644e-06
1.55635e-06
1.55639e-06
1.55653e-06
1.55671e-06
1.5581e-06
1.55805e-06
1.55803e-06
1.55794e-06
1.55795e-06
1.55807e-06
1.54301e-06
1.54142e-06
1.54135e-06
1.54137e-06
1.54282e-06
1.54301e-06
1.54311e-06
1.54165e-06
1.54099e-06
1.53848e-06
1.53848e-06
1.53848e-06
1.54102e-06
1.54153e-06
1.54289e-06
1.54165e-06
1.54096e-06
1.53848e-06
1.53848e-06
1.53848e-06
1.53848e-06
1.53848e-06
1.54096e-06
1.54151e-06
1.54291e-06
1.54301e-06
1.54099e-06
1.53848e-06
1.53848e-06
1.53848e-06
1.53848e-06
1.53848e-06
1.53848e-06
1.53848e-06
1.54098e-06
1.54162e-06
1.54308e-06
1.54142e-06
1.53848e-06
1.53848e-06
1.53848e-06
1.53848e-06
1.53848e-06
1.53848e-06
1.53848e-06
1.53848e-06
1.53848e-06
1.54147e-06
1.54306e-06
1.54135e-06
1.53848e-06
1.53848e-06
1.53848e-06
1.53848e-06
1.53848e-06
1.53848e-06
1.53848e-06
1.53848e-06
1.53848e-06
1.54138e-06
1.54297e-06
1.54137e-06
1.53848e-06
1.53848e-06
1.53848e-06
1.53848e-06
1.53848e-06
1.53848e-06
1.53848e-06
1.53848e-06
1.53848e-06
1.54142e-06
1.54298e-06
1.54282e-06
1.54102e-06
1.53848e-06
1.53848e-06
1.53848e-06
1.53848e-06
1.53848e-06
1.53848e-06
1.53848e-06
1.54099e-06
1.54156e-06
1.5431e-06
1.54301e-06
1.54153e-06
1.54096e-06
1.53848e-06
1.53848e-06
1.53848e-06
1.53848e-06
1.53848e-06
1.54095e-06
1.54138e-06
1.54174e-06
1.54289e-06
1.54151e-06
1.54098e-06
1.53848e-06
1.53848e-06
1.53848e-06
1.54099e-06
1.54138e-06
1.5417e-06
1.54313e-06
1.54291e-06
1.54162e-06
1.54147e-06
1.54138e-06
1.54142e-06
1.54156e-06
1.54174e-06
1.54313e-06
1.54308e-06
1.54306e-06
1.54297e-06
1.54298e-06
1.5431e-06
1.52804e-06
1.52645e-06
1.52638e-06
1.5264e-06
1.52785e-06
1.52804e-06
1.52814e-06
1.52668e-06
1.52602e-06
1.52351e-06
1.52351e-06
1.52351e-06
1.52605e-06
1.52656e-06
1.52792e-06
1.52668e-06
1.52599e-06
1.52351e-06
1.52351e-06
1.52351e-06
1.52351e-06
1.52351e-06
1.52599e-06
1.52654e-06
1.52794e-06
1.52804e-06
1.52602e-06
1.52351e-06
1.52351e-06
1.52351e-06
1.52351e-06
1.52351e-06
1.52351e-06
1.52351e-06
1.52601e-06
1.52665e-06
1.52811e-06
1.52645e-06
1.52351e-06
1.52351e-06
1.52351e-06
1.52351e-06
1.52351e-06
1.52351e-06
1.52351e-06
1.52351e-06
1.52351e-06
1.5265e-06
1.52809e-06
1.52638e-06
1.52351e-06
1.52351e-06
1.52351e-06
1.52351e-06
1.52351e-06
1.52351e-06
1.52351e-06
1.52351e-06
1.52351e-06
1.52641e-06
1.528e-06
1.5264e-06
1.52351e-06
1.52351e-06
1.52351e-06
1.52351e-06
1.52351e-06
1.52351e-06
1.52351e-06
1.52351e-06
1.52351e-06
1.52645e-06
1.52801e-06
1.52785e-06
1.52605e-06
1.52351e-06
1.52351e-06
1.52351e-06
1.52351e-06
1.52351e-06
1.52351e-06
1.52351e-06
1.52602e-06
1.52659e-06
1.52813e-06
1.52804e-06
1.52656e-06
1.52599e-06
1.52351e-06
1.52351e-06
1.52351e-06
1.52351e-06
1.52351e-06
1.52598e-06
1.52641e-06
1.52677e-06
1.52792e-06
1.52654e-06
1.52601e-06
1.52351e-06
1.52351e-06
1.52351e-06
1.52602e-06
1.52641e-06
1.52673e-06
1.52816e-06
1.52794e-06
1.52665e-06
1.5265e-06
1.52641e-06
1.52645e-06
1.52659e-06
1.52677e-06
1.52816e-06
1.52811e-06
1.52809e-06
1.528e-06
1.52801e-06
1.52813e-06
1.51307e-06
1.51148e-06
1.51141e-06
1.51143e-06
1.51288e-06
1.51307e-06
1.51317e-06
1.51171e-06
1.51105e-06
1.50854e-06
1.50854e-06
1.50854e-06
1.51108e-06
1.51159e-06
1.51295e-06
1.51171e-06
1.51102e-06
1.50854e-06
1.50854e-06
1.50854e-06
1.50854e-06
1.50854e-06
1.51102e-06
1.51157e-06
1.51297e-06
1.51307e-06
1.51105e-06
1.50854e-06
1.50854e-06
1.50854e-06
1.50854e-06
1.50854e-06
1.50854e-06
1.50854e-06
1.51104e-06
1.51168e-06
1.51314e-06
1.51148e-06
1.50854e-06
1.50854e-06
1.50854e-06
1.50854e-06
1.50854e-06
1.50854e-06
1.50854e-06
1.50854e-06
1.50854e-06
1.51153e-06
1.51312e-06
1.51141e-06
1.50854e-06
1.50854e-06
1.50854e-06
1.50854e-06
1.50854e-06
1.50854e-06
1.50854e-06
1.50854e-06
1.50854e-06
1.51144e-06
1.51303e-06
1.51143e-06
1.50854e-06
1.50854e-06
1.50854e-06
1.50854e-06
1.50854e-06
1.50854e-06
1.50854e-06
1.50854e-06
1.50854e-06
1.51148e-06
1.51304e-06
1.51288e-06
1.51108e-06
1.50854e-06
1.50854e-06
1.50854e-06
1.50854e-06
1.50854e-06
1.50854e-06
1.50854e-06
1.51105e-06
1.51162e-06
1.51316e-06
1.51307e-06
1.51159e-06
1.51102e-06
1.50854e-06
1.50854e-06
1.50854e-06
1.50854e-06
1.50854e-06
1.51101e-06
1.51144e-06
1.5118e-06
1.51295e-06
1.51157e-06
1.51104e-06
1.50854e-06
1.50854e-06
1.50854e-06
1.51105e-06
1.51144e-06
1.51176e-06
1.51319e-06
1.51297e-06
1.51168e-06
1.51153e-06
1.51144e-06
1.51148e-06
1.51162e-06
1.5118e-06
1.51319e-06
1.51314e-06
1.51312e-06
1.51303e-06
1.51304e-06
1.51316e-06
1.4981e-06
1.49651e-06
1.49644e-06
1.49646e-06
1.49791e-06
1.4981e-06
1.4982e-06
1.49673e-06
1.49608e-06
1.49357e-06
1.49357e-06
1.49357e-06
1.49611e-06
1.49662e-06
1.49798e-06
1.49673e-06
1.49605e-06
1.49357e-06
1.49357e-06
1.49357e-06
1.49357e-06
1.49357e-06
1.49605e-06
1.4966e-06
1.498e-06
1.4981e-06
1.49608e-06
1.49357e-06
1.49357e-06
1.49357e-06
1.49357e-06
1.49357e-06
1.49357e-06
1.49357e-06
1.49607e-06
1.49671e-06
1.49816e-06
1.49651e-06
1.49357e-06
1.49357e-06
1.49357e-06
1.49357e-06
1.49357e-06
1.49357e-06
1.49357e-06
1.49357e-06
1.49357e-06
1.49656e-06
1.49814e-06
1.49644e-06
1.49357e-06
1.49357e-06
1.49357e-06
1.49357e-06
1.49357e-06
1.49357e-06
1.49357e-06
1.49357e-06
1.49357e-06
1.49647e-06
1.49806e-06
1.49646e-06
1.49357e-06
1.49357e-06
1.49357e-06
1.49357e-06
1.49357e-06
1.49357e-06
1.49357e-06
1.49357e-06
1.49357e-06
1.49651e-06
1.49806e-06
1.49791e-06
1.49611e-06
1.49357e-06
1.49357e-06
1.49357e-06
1.49357e-06
1.49357e-06
1.49357e-06
1.49357e-06
1.49608e-06
1.49665e-06
1.49819e-06
1.4981e-06
1.49662e-06
1.49605e-06
1.49357e-06
1.49357e-06
1.49357e-06
1.49357e-06
1.49357e-06
1.49604e-06
1.49647e-06
1.49683e-06
1.49798e-06
1.4966e-06
1.49607e-06
1.49357e-06
1.49357e-06
1.49357e-06
1.49608e-06
1.49647e-06
1.49679e-06
1.49822e-06
1.498e-06
1.49671e-06
1.49656e-06
1.49647e-06
1.49651e-06
1.49665e-06
1.49683e-06
1.49822e-06
1.49816e-06
1.49814e-06
1.49806e-06
1.49806e-06
1.49819e-06
1.48313e-06
1.48154e-06
1.48147e-06
1.48149e-06
1.48294e-06
1.48313e-06
1.48323e-06
1.48176e-06
1.48111e-06
1.4786e-06
1.4786e-06
1.4786e-06
1.48114e-06
1.48165e-06
1.48301e-06
1.48176e-06
1.48108e-06
1.4786e-06
1.4786e-06
1.4786e-06
1.4786e-06
1.4786e-06
1.48108e-06
1.48163e-06
1.48303e-06
1.48313e-06
1.48111e-06
1.4786e-06
1.4786e-06
1.4786e-06
1.4786e-06
1.4786e-06
1.4786e-06
1.4786e-06
1.4811e-06
1.48174e-06
1.48319e-06
1.48154e-06
1.4786e-06
1.4786e-06
1.4786e-06
1.4786e-06
1.4786e-06
1.4786e-06
1.4786e-06
1.4786e-06
1.4786e-06
1.48159e-06
1.48317e-06
1.48147e-06
1.4786e-06
1.4786e-06
1.4786e-06
1.4786e-06
1.4786e-06
1.4786e-06
1.4786e-06
1.4786e-06
1.4786e-06
1.4815e-06
1.48309e-06
1.48149e-06
1.4786e-06
1.4786e-06
1.4786e-06
1.4786e-06
1.4786e-06
1.4786e-06
1.4786e-06
1.4786e-06