/*--------------------------------*- C++ -*----------------------------------*\
| =========                 |                                                 |
| \\      /  F ield         | OpenFOAM: The Open Source CFD Toolbox           |
|  \\    /   O peration     | Version:  v2012                                 |
|   \\  /    A nd           | Website:  www.openfoam.com                      |
|    \\/     M anipulation  |                                                 |
\*---------------------------------------------------------------------------*/
FoamFile
{
    version     2.0;
    format      ascii;
    class       volScalarField;
    location    "93";
    object      p;
}
// * * * * * * * * * * * * * * * * * * * * * * * * * * * * * * * * * * * * * //

dimensions      [0 2 -2 0 0 0 0];


internalField   nonuniform List<scalar> 
292667
(
9.58512e-07
9.49847e-07
9.49246e-07
9.49297e-07
9.50089e-07
9.59317e-07
9.50047e-07
9.48014e-07
9.46806e-07
9.46306e-07
9.46369e-07
9.47016e-07
9.48398e-07
9.50592e-07
9.50046e-07
9.47428e-07
9.45764e-07
9.4484e-07
9.4445e-07
9.44501e-07
9.45004e-07
9.46074e-07
9.47936e-07
9.50715e-07
9.58513e-07
9.48014e-07
9.45764e-07
9.4441e-07
9.43651e-07
9.43326e-07
9.43369e-07
9.4379e-07
9.44671e-07
9.46203e-07
9.48707e-07
9.57872e-07
9.49847e-07
9.46806e-07
9.4484e-07
9.43651e-07
9.42976e-07
9.42684e-07
9.42724e-07
9.43103e-07
9.43887e-07
9.45236e-07
9.47452e-07
9.53003e-07
9.49246e-07
9.46306e-07
9.4445e-07
9.43326e-07
9.42684e-07
9.42405e-07
9.42444e-07
9.42806e-07
9.43553e-07
9.4483e-07
9.46933e-07
9.51554e-07
9.49296e-07
9.46369e-07
9.44501e-07
9.43369e-07
9.42724e-07
9.42444e-07
9.42483e-07
9.42848e-07
9.43599e-07
9.44887e-07
9.47008e-07
9.51838e-07
9.50089e-07
9.47016e-07
9.45004e-07
9.4379e-07
9.43103e-07
9.42806e-07
9.42848e-07
9.43234e-07
9.44037e-07
9.45421e-07
9.47697e-07
9.53277e-07
9.59317e-07
9.48398e-07
9.46074e-07
9.44671e-07
9.43887e-07
9.43553e-07
9.43599e-07
9.44037e-07
9.44955e-07
9.46556e-07
9.49146e-07
9.57693e-07
9.50592e-07
9.47936e-07
9.46203e-07
9.45236e-07
9.4483e-07
9.44887e-07
9.45421e-07
9.46556e-07
9.48519e-07
9.53935e-07
9.50715e-07
9.48706e-07
9.47452e-07
9.46933e-07
9.47008e-07
9.47697e-07
9.49146e-07
9.53935e-07
9.57871e-07
9.53003e-07
9.51554e-07
9.51838e-07
9.53277e-07
9.57693e-07
9.36326e-07
9.35822e-07
9.35782e-07
9.35831e-07
9.36397e-07
9.36239e-07
9.36337e-07
9.35945e-07
9.35652e-07
9.34685e-07
9.34668e-07
9.34685e-07
9.35814e-07
9.36016e-07
9.36411e-07
9.35945e-07
9.35625e-07
9.34711e-07
9.34676e-07
9.34706e-07
9.34676e-07
9.34712e-07
9.35799e-07
9.36008e-07
9.36402e-07
9.36326e-07
9.35652e-07
9.34711e-07
9.34655e-07
9.34671e-07
9.34648e-07
9.34672e-07
9.34655e-07
9.34712e-07
9.35806e-07
9.36049e-07
9.36403e-07
9.35822e-07
9.34685e-07
9.34676e-07
9.34672e-07
9.3463e-07
9.34634e-07
9.3463e-07
9.34672e-07
9.34676e-07
9.34685e-07
9.3622e-07
9.36596e-07
9.35782e-07
9.34668e-07
9.34706e-07
9.34648e-07
9.34634e-07
9.34621e-07
9.34634e-07
9.34649e-07
9.34706e-07
9.34668e-07
9.3624e-07
9.3655e-07
9.35831e-07
9.34685e-07
9.34676e-07
9.34672e-07
9.3463e-07
9.34634e-07
9.3463e-07
9.34672e-07
9.34676e-07
9.34685e-07
9.36228e-07
9.36565e-07
9.36397e-07
9.35814e-07
9.34712e-07
9.34655e-07
9.34672e-07
9.34649e-07
9.34672e-07
9.34655e-07
9.34712e-07
9.36018e-07
9.36125e-07
9.3654e-07
9.36239e-07
9.36016e-07
9.35799e-07
9.34712e-07
9.34676e-07
9.34706e-07
9.34677e-07
9.34712e-07
9.35986e-07
9.36089e-07
9.36076e-07
9.36411e-07
9.36008e-07
9.35806e-07
9.34685e-07
9.34668e-07
9.34685e-07
9.36018e-07
9.36089e-07
9.36103e-07
9.36497e-07
9.36402e-07
9.36049e-07
9.36219e-07
9.3624e-07
9.36228e-07
9.36125e-07
9.36076e-07
9.36497e-07
9.36403e-07
9.36596e-07
9.3655e-07
9.36565e-07
9.3654e-07
9.28352e-07
9.2776e-07
9.27712e-07
9.27755e-07
9.28387e-07
9.28383e-07
9.28352e-07
9.27841e-07
9.27497e-07
9.2658e-07
9.26579e-07
9.2658e-07
9.27655e-07
9.27885e-07
9.28385e-07
9.27841e-07
9.2747e-07
9.26614e-07
9.26623e-07
9.26649e-07
9.26623e-07
9.26613e-07
9.27649e-07
9.27885e-07
9.28386e-07
9.28352e-07
9.27497e-07
9.26614e-07
9.26634e-07
9.2667e-07
9.26666e-07
9.2667e-07
9.26634e-07
9.26614e-07
9.27664e-07
9.27955e-07
9.2839e-07
9.2776e-07
9.2658e-07
9.26623e-07
9.26671e-07
9.26676e-07
9.26694e-07
9.26676e-07
9.26671e-07
9.26623e-07
9.2658e-07
9.28045e-07
9.28555e-07
9.27712e-07
9.26579e-07
9.26649e-07
9.26666e-07
9.26694e-07
9.26694e-07
9.26694e-07
9.26666e-07
9.26649e-07
9.26579e-07
9.28055e-07
9.28585e-07
9.27755e-07
9.2658e-07
9.26623e-07
9.26671e-07
9.26676e-07
9.26694e-07
9.26676e-07
9.26671e-07
9.26623e-07
9.2658e-07
9.2805e-07
9.28584e-07
9.28387e-07
9.27655e-07
9.26613e-07
9.26634e-07
9.26671e-07
9.26666e-07
9.26671e-07
9.26634e-07
9.26614e-07
9.27884e-07
9.28017e-07
9.28536e-07
9.28383e-07
9.27885e-07
9.27649e-07
9.26614e-07
9.26623e-07
9.26649e-07
9.26623e-07
9.26614e-07
9.27863e-07
9.27957e-07
9.28028e-07
9.28385e-07
9.27885e-07
9.27664e-07
9.2658e-07
9.26579e-07
9.2658e-07
9.27884e-07
9.27957e-07
9.2801e-07
9.2851e-07
9.28386e-07
9.27955e-07
9.28045e-07
9.28055e-07
9.28051e-07
9.28017e-07
9.28028e-07
9.2851e-07
9.2839e-07
9.28555e-07
9.28585e-07
9.28584e-07
9.28536e-07
9.20408e-07
9.19806e-07
9.19753e-07
9.19798e-07
9.20441e-07
9.2044e-07
9.2041e-07
9.19885e-07
9.19523e-07
9.1859e-07
9.18591e-07
9.1859e-07
9.19675e-07
9.19919e-07
9.20441e-07
9.19885e-07
9.19489e-07
9.18608e-07
9.18623e-07
9.18635e-07
9.18623e-07
9.18608e-07
9.1966e-07
9.19917e-07
9.20443e-07
9.20408e-07
9.19523e-07
9.18608e-07
9.18631e-07
9.18657e-07
9.18657e-07
9.18657e-07
9.18631e-07
9.18608e-07
9.19681e-07
9.19999e-07
9.20447e-07
9.19806e-07
9.1859e-07
9.18623e-07
9.18657e-07
9.18671e-07
9.18684e-07
9.18671e-07
9.18657e-07
9.18623e-07
9.1859e-07
9.20082e-07
9.20612e-07
9.19753e-07
9.18592e-07
9.18635e-07
9.18658e-07
9.18684e-07
9.18685e-07
9.18684e-07
9.18658e-07
9.18635e-07
9.18591e-07
9.20084e-07
9.20638e-07
9.19798e-07
9.1859e-07
9.18623e-07
9.18657e-07
9.18671e-07
9.18684e-07
9.18671e-07
9.18657e-07
9.18623e-07
9.1859e-07
9.20081e-07
9.20637e-07
9.20441e-07
9.19675e-07
9.18608e-07
9.18631e-07
9.18657e-07
9.18658e-07
9.18657e-07
9.18631e-07
9.18608e-07
9.19901e-07
9.20058e-07
9.20592e-07
9.2044e-07
9.19919e-07
9.1966e-07
9.18608e-07
9.18623e-07
9.18635e-07
9.18623e-07
9.18608e-07
9.19875e-07
9.19985e-07
9.2008e-07
9.20441e-07
9.19917e-07
9.1968e-07
9.1859e-07
9.18591e-07
9.1859e-07
9.19901e-07
9.19985e-07
9.20058e-07
9.20569e-07
9.20443e-07
9.19999e-07
9.20082e-07
9.20084e-07
9.20081e-07
9.20058e-07
9.2008e-07
9.20569e-07
9.20447e-07
9.20613e-07
9.20638e-07
9.20637e-07
9.20592e-07
9.12464e-07
9.11859e-07
9.11804e-07
9.1185e-07
9.12497e-07
9.12497e-07
9.12467e-07
9.11938e-07
9.11569e-07
9.10627e-07
9.10629e-07
9.10627e-07
9.1172e-07
9.11969e-07
9.12498e-07
9.11938e-07
9.11532e-07
9.10636e-07
9.10647e-07
9.10653e-07
9.10647e-07
9.10636e-07
9.117e-07
9.11967e-07
9.12501e-07
9.12464e-07
9.11569e-07
9.10636e-07
9.10652e-07
9.10667e-07
9.10669e-07
9.10667e-07
9.10652e-07
9.10636e-07
9.11724e-07
9.12053e-07
9.12503e-07
9.11859e-07
9.10627e-07
9.10647e-07
9.10667e-07
9.10679e-07
9.10686e-07
9.10679e-07
9.10667e-07
9.10647e-07
9.10627e-07
9.12133e-07
9.12668e-07
9.11804e-07
9.10629e-07
9.10653e-07
9.10669e-07
9.10686e-07
9.10688e-07
9.10687e-07
9.10669e-07
9.10653e-07
9.10629e-07
9.12133e-07
9.12694e-07
9.1185e-07
9.10627e-07
9.10647e-07
9.10667e-07
9.10679e-07
9.10686e-07
9.10679e-07
9.10667e-07
9.10647e-07
9.10627e-07
9.12131e-07
9.12693e-07
9.12497e-07
9.1172e-07
9.10636e-07
9.10652e-07
9.10667e-07
9.10669e-07
9.10667e-07
9.10652e-07
9.10636e-07
9.11945e-07
9.12111e-07
9.12647e-07
9.12497e-07
9.11969e-07
9.117e-07
9.10636e-07
9.10647e-07
9.10653e-07
9.10647e-07
9.10636e-07
9.11915e-07
9.12033e-07
9.12136e-07
9.12498e-07
9.11967e-07
9.11724e-07
9.10627e-07
9.10629e-07
9.10627e-07
9.11945e-07
9.12033e-07
9.12113e-07
9.12627e-07
9.12501e-07
9.12053e-07
9.12133e-07
9.12133e-07
9.12131e-07
9.12111e-07
9.12136e-07
9.12627e-07
9.12503e-07
9.12668e-07
9.12694e-07
9.12693e-07
9.12647e-07
9.04518e-07
9.03912e-07
9.03857e-07
9.03903e-07
9.04551e-07
9.04552e-07
9.04522e-07
9.03991e-07
9.03619e-07
9.02673e-07
9.02675e-07
9.02673e-07
9.0377e-07
9.04022e-07
9.04553e-07
9.03991e-07
9.03581e-07
9.02678e-07
9.02685e-07
9.02687e-07
9.02685e-07
9.02678e-07
9.03748e-07
9.04019e-07
9.04556e-07
9.04519e-07
9.03619e-07
9.02678e-07
9.02687e-07
9.02696e-07
9.02697e-07
9.02696e-07
9.02687e-07
9.02678e-07
9.03773e-07
9.04107e-07
9.04558e-07
9.03912e-07
9.02673e-07
9.02685e-07
9.02696e-07
9.02704e-07
9.02708e-07
9.02704e-07
9.02696e-07
9.02685e-07
9.02673e-07
9.04186e-07
9.04722e-07
9.03857e-07
9.02675e-07
9.02687e-07
9.02697e-07
9.02708e-07
9.0271e-07
9.02708e-07
9.02697e-07
9.02687e-07
9.02675e-07
9.04185e-07
9.04749e-07
9.03903e-07
9.02673e-07
9.02685e-07
9.02696e-07
9.02704e-07
9.02708e-07
9.02704e-07
9.02696e-07
9.02685e-07
9.02673e-07
9.04183e-07
9.04748e-07
9.04551e-07
9.0377e-07
9.02678e-07
9.02687e-07
9.02696e-07
9.02697e-07
9.02696e-07
9.02687e-07
9.02678e-07
9.03994e-07
9.04164e-07
9.04702e-07
9.04552e-07
9.04022e-07
9.03748e-07
9.02678e-07
9.02685e-07
9.02687e-07
9.02685e-07
9.02678e-07
9.03963e-07
9.04085e-07
9.04191e-07
9.04553e-07
9.04019e-07
9.03773e-07
9.02673e-07
9.02675e-07
9.02673e-07
9.03994e-07
9.04085e-07
9.04167e-07
9.04682e-07
9.04556e-07
9.04107e-07
9.04186e-07
9.04185e-07
9.04183e-07
9.04164e-07
9.04191e-07
9.04682e-07
9.04558e-07
9.04722e-07
9.04749e-07
9.04748e-07
9.04702e-07
8.96572e-07
8.95965e-07
8.9591e-07
8.95956e-07
8.96605e-07
8.96606e-07
8.96576e-07
8.96044e-07
8.95671e-07
8.94723e-07
8.94724e-07
8.94723e-07
8.95822e-07
8.96075e-07
8.96607e-07
8.96044e-07
8.95632e-07
8.94726e-07
8.9473e-07
8.94731e-07
8.9473e-07
8.94726e-07
8.958e-07
8.96072e-07
8.9661e-07
8.96572e-07
8.95671e-07
8.94726e-07
8.94731e-07
8.94735e-07
8.94737e-07
8.94735e-07
8.94731e-07
8.94726e-07
8.95825e-07
8.9616e-07
8.96612e-07
8.95965e-07
8.94723e-07
8.9473e-07
8.94736e-07
8.94741e-07
8.94743e-07
8.94741e-07
8.94736e-07
8.9473e-07
8.94723e-07
8.96239e-07
8.96777e-07
8.9591e-07
8.94724e-07
8.94731e-07
8.94737e-07
8.94742e-07
8.94744e-07
8.94742e-07
8.94737e-07
8.94731e-07
8.94724e-07
8.96237e-07
8.96802e-07
8.95956e-07
8.94723e-07
8.9473e-07
8.94735e-07
8.94741e-07
8.94743e-07
8.94741e-07
8.94735e-07
8.9473e-07
8.94723e-07
8.96235e-07
8.96801e-07
8.96605e-07
8.95822e-07
8.94725e-07
8.94731e-07
8.94735e-07
8.94737e-07
8.94736e-07
8.94731e-07
8.94726e-07
8.96046e-07
8.96217e-07
8.96756e-07
8.96606e-07
8.96075e-07
8.958e-07
8.94726e-07
8.9473e-07
8.94731e-07
8.9473e-07
8.94726e-07
8.96013e-07
8.96138e-07
8.96245e-07
8.96607e-07
8.96072e-07
8.95825e-07
8.94723e-07
8.94724e-07
8.94723e-07
8.96046e-07
8.96138e-07
8.96221e-07
8.96736e-07
8.9661e-07
8.9616e-07
8.96238e-07
8.96237e-07
8.96235e-07
8.96217e-07
8.96245e-07
8.96736e-07
8.96612e-07
8.96777e-07
8.96802e-07
8.96801e-07
8.96756e-07
8.88625e-07
8.88018e-07
8.87962e-07
8.88008e-07
8.88658e-07
8.88659e-07
8.88629e-07
8.88097e-07
8.87723e-07
8.86774e-07
8.86775e-07
8.86774e-07
8.87875e-07
8.88128e-07
8.8866e-07
8.88097e-07
8.87684e-07
8.86776e-07
8.86779e-07
8.86779e-07
8.86779e-07
8.86776e-07
8.87852e-07
8.88125e-07
8.88663e-07
8.88625e-07
8.87723e-07
8.86776e-07
8.86779e-07
8.86781e-07
8.86782e-07
8.86781e-07
8.86779e-07
8.86776e-07
8.87878e-07
8.88213e-07
8.88665e-07
8.88018e-07
8.86774e-07
8.86779e-07
8.86781e-07
8.86785e-07
8.86785e-07
8.86785e-07
8.86781e-07
8.86779e-07
8.86774e-07
8.88291e-07
8.88829e-07
8.87962e-07
8.86775e-07
8.86779e-07
8.86782e-07
8.86785e-07
8.86786e-07
8.86785e-07
8.86782e-07
8.86779e-07
8.86775e-07
8.8829e-07
8.88855e-07
8.88008e-07
8.86774e-07
8.86779e-07
8.86781e-07
8.86785e-07
8.86785e-07
8.86785e-07
8.86781e-07
8.86779e-07
8.86774e-07
8.88288e-07
8.88854e-07
8.88658e-07
8.87875e-07
8.86776e-07
8.86779e-07
8.86781e-07
8.86782e-07
8.86781e-07
8.86779e-07
8.86776e-07
8.88098e-07
8.88271e-07
8.88809e-07
8.88659e-07
8.88128e-07
8.87852e-07
8.86776e-07
8.86779e-07
8.86779e-07
8.86779e-07
8.86776e-07
8.88065e-07
8.88191e-07
8.88298e-07
8.8866e-07
8.88125e-07
8.87878e-07
8.86774e-07
8.86775e-07
8.86774e-07
8.88098e-07
8.88191e-07
8.88274e-07
8.8879e-07
8.88663e-07
8.88213e-07
8.88291e-07
8.8829e-07
8.88288e-07
8.8827e-07
8.88298e-07
8.88789e-07
8.88665e-07
8.88829e-07
8.88855e-07
8.88854e-07
8.88809e-07
8.80678e-07
8.8007e-07
8.80015e-07
8.80061e-07
8.80711e-07
8.80712e-07
8.80682e-07
8.8015e-07
8.79776e-07
8.78826e-07
8.78827e-07
8.78826e-07
8.79927e-07
8.8018e-07
8.80714e-07
8.8015e-07
8.79736e-07
8.78827e-07
8.7883e-07
8.78829e-07
8.7883e-07
8.78827e-07
8.79904e-07
8.80178e-07
8.80716e-07
8.80678e-07
8.79776e-07
8.78827e-07
8.78829e-07
8.7883e-07
8.78831e-07
8.7883e-07
8.78829e-07
8.78827e-07
8.7993e-07
8.80266e-07
8.80718e-07
8.8007e-07
8.78826e-07
8.7883e-07
8.7883e-07
8.78833e-07
8.78833e-07
8.78833e-07
8.7883e-07
8.7883e-07
8.78826e-07
8.80344e-07
8.80882e-07
8.80015e-07
8.78827e-07
8.78829e-07
8.78831e-07
8.78833e-07
8.78833e-07
8.78833e-07
8.78831e-07
8.78829e-07
8.78827e-07
8.80342e-07
8.80908e-07
8.80061e-07
8.78826e-07
8.7883e-07
8.7883e-07
8.78833e-07
8.78833e-07
8.78833e-07
8.7883e-07
8.7883e-07
8.78826e-07
8.80341e-07
8.80907e-07
8.80711e-07
8.79927e-07
8.78827e-07
8.78829e-07
8.7883e-07
8.78831e-07
8.7883e-07
8.78829e-07
8.78827e-07
8.80151e-07
8.80323e-07
8.80862e-07
8.80712e-07
8.8018e-07
8.79904e-07
8.78827e-07
8.7883e-07
8.78829e-07
8.7883e-07
8.78827e-07
8.80118e-07
8.80243e-07
8.80351e-07
8.80713e-07
8.80178e-07
8.7993e-07
8.78826e-07
8.78827e-07
8.78826e-07
8.80151e-07
8.80243e-07
8.80327e-07
8.80843e-07
8.80716e-07
8.80266e-07
8.80344e-07
8.80342e-07
8.80341e-07
8.80323e-07
8.80351e-07
8.80842e-07
8.80718e-07
8.80882e-07
8.80908e-07
8.80907e-07
8.80862e-07
8.72731e-07
8.72123e-07
8.72068e-07
8.72114e-07
8.72763e-07
8.72765e-07
8.72735e-07
8.72202e-07
8.71828e-07
8.70878e-07
8.70879e-07
8.70878e-07
8.7198e-07
8.72233e-07
8.72766e-07
8.72202e-07
8.71789e-07
8.70879e-07
8.70881e-07
8.7088e-07
8.70881e-07
8.70879e-07
8.71957e-07
8.7223e-07
8.72769e-07
8.72731e-07
8.71828e-07
8.70879e-07
8.70881e-07
8.70881e-07
8.70882e-07
8.70881e-07
8.70881e-07
8.70879e-07
8.71983e-07
8.72319e-07
8.72771e-07
8.72123e-07
8.70878e-07
8.70881e-07
8.70881e-07
8.70883e-07
8.70882e-07
8.70883e-07
8.70881e-07
8.70881e-07
8.70878e-07
8.72397e-07
8.72935e-07
8.72068e-07
8.70879e-07
8.7088e-07
8.70882e-07
8.70882e-07
8.70883e-07
8.70882e-07
8.70882e-07
8.7088e-07
8.70879e-07
8.72395e-07
8.7296e-07
8.72114e-07
8.70878e-07
8.70881e-07
8.70881e-07
8.70883e-07
8.70882e-07
8.70883e-07
8.70881e-07
8.70881e-07
8.70878e-07
8.72393e-07
8.7296e-07
8.72763e-07
8.7198e-07
8.70879e-07
8.70881e-07
8.70881e-07
8.70882e-07
8.70881e-07
8.70881e-07
8.70879e-07
8.72203e-07
8.72376e-07
8.72914e-07
8.72765e-07
8.72233e-07
8.71956e-07
8.70879e-07
8.70881e-07
8.7088e-07
8.70881e-07
8.70879e-07
8.7217e-07
8.72296e-07
8.72403e-07
8.72766e-07
8.7223e-07
8.71983e-07
8.70878e-07
8.70879e-07
8.70878e-07
8.72203e-07
8.72296e-07
8.7238e-07
8.72895e-07
8.72769e-07
8.72319e-07
8.72397e-07
8.72395e-07
8.72393e-07
8.72376e-07
8.72404e-07
8.72895e-07
8.72771e-07
8.72935e-07
8.72961e-07
8.7296e-07
8.72915e-07
8.64784e-07
8.64176e-07
8.6412e-07
8.64167e-07
8.64816e-07
8.64817e-07
8.64788e-07
8.64255e-07
8.63881e-07
8.62931e-07
8.62932e-07
8.62931e-07
8.64033e-07
8.64286e-07
8.64819e-07
8.64255e-07
8.63842e-07
8.62931e-07
8.62934e-07
8.62932e-07
8.62934e-07
8.62931e-07
8.64009e-07
8.64283e-07
8.64822e-07
8.64784e-07
8.63881e-07
8.62931e-07
8.62933e-07
8.62932e-07
8.62933e-07
8.62932e-07
8.62933e-07
8.62931e-07
8.64036e-07
8.64371e-07
8.64823e-07
8.64176e-07
8.62931e-07
8.62934e-07
8.62932e-07
8.62934e-07
8.62933e-07
8.62934e-07
8.62932e-07
8.62934e-07
8.62931e-07
8.64449e-07
8.64988e-07
8.6412e-07
8.62932e-07
8.62932e-07
8.62933e-07
8.62933e-07
8.62934e-07
8.62933e-07
8.62933e-07
8.62932e-07
8.62932e-07
8.64447e-07
8.65013e-07
8.64167e-07
8.62931e-07
8.62934e-07
8.62932e-07
8.62934e-07
8.62933e-07
8.62934e-07
8.62932e-07
8.62934e-07
8.62931e-07
8.64446e-07
8.65012e-07
8.64816e-07
8.64032e-07
8.62931e-07
8.62933e-07
8.62932e-07
8.62933e-07
8.62932e-07
8.62933e-07
8.62931e-07
8.64256e-07
8.64429e-07
8.64967e-07
8.64817e-07
8.64286e-07
8.64009e-07
8.62931e-07
8.62934e-07
8.62932e-07
8.62934e-07
8.62931e-07
8.64223e-07
8.64349e-07
8.64457e-07
8.64819e-07
8.64283e-07
8.64035e-07
8.62931e-07
8.62932e-07
8.62931e-07
8.64256e-07
8.64348e-07
8.64432e-07
8.64948e-07
8.64822e-07
8.64371e-07
8.64449e-07
8.64447e-07
8.64446e-07
8.64428e-07
8.64456e-07
8.64947e-07
8.64823e-07
8.64988e-07
8.65013e-07
8.65012e-07
8.64967e-07
8.56837e-07
8.56229e-07
8.56173e-07
8.56219e-07
8.56869e-07
8.5687e-07
8.56841e-07
8.56308e-07
8.55934e-07
8.54983e-07
8.54984e-07
8.54983e-07
8.56085e-07
8.56339e-07
8.56872e-07
8.56308e-07
8.55894e-07
8.54984e-07
8.54986e-07
8.54985e-07
8.54986e-07
8.54984e-07
8.56062e-07
8.56336e-07
8.56875e-07
8.56836e-07
8.55934e-07
8.54984e-07
8.54985e-07
8.54984e-07
8.54985e-07
8.54984e-07
8.54985e-07
8.54984e-07
8.56088e-07
8.56424e-07
8.56876e-07
8.56228e-07
8.54983e-07
8.54986e-07
8.54984e-07
8.54987e-07
8.54985e-07
8.54987e-07
8.54984e-07
8.54986e-07
8.54983e-07
8.56502e-07
8.57041e-07
8.56173e-07
8.54984e-07
8.54985e-07
8.54985e-07
8.54985e-07
8.54986e-07
8.54985e-07
8.54985e-07
8.54985e-07
8.54984e-07
8.565e-07
8.57066e-07
8.56219e-07
8.54983e-07
8.54986e-07
8.54984e-07
8.54987e-07
8.54985e-07
8.54987e-07
8.54984e-07
8.54986e-07
8.54983e-07
8.56499e-07
8.57065e-07
8.56869e-07
8.56085e-07
8.54984e-07
8.54985e-07
8.54984e-07
8.54985e-07
8.54984e-07
8.54985e-07
8.54984e-07
8.56309e-07
8.56481e-07
8.5702e-07
8.5687e-07
8.56339e-07
8.56062e-07
8.54984e-07
8.54986e-07
8.54985e-07
8.54986e-07
8.54984e-07
8.56276e-07
8.56401e-07
8.56509e-07
8.56872e-07
8.56336e-07
8.56088e-07
8.54983e-07
8.54984e-07
8.54983e-07
8.56309e-07
8.56401e-07
8.56485e-07
8.57001e-07
8.56875e-07
8.56424e-07
8.56502e-07
8.565e-07
8.56498e-07
8.56481e-07
8.56509e-07
8.57e-07
8.56876e-07
8.57041e-07
8.57066e-07
8.57065e-07
8.5702e-07
8.48889e-07
8.48281e-07
8.48226e-07
8.48272e-07
8.48922e-07
8.48923e-07
8.48893e-07
8.48361e-07
8.47986e-07
8.47036e-07
8.47037e-07
8.47036e-07
8.48138e-07
8.48391e-07
8.48925e-07
8.48361e-07
8.47947e-07
8.47037e-07
8.47039e-07
8.47037e-07
8.47039e-07
8.47037e-07
8.48115e-07
8.48388e-07
8.48928e-07
8.48889e-07
8.47986e-07
8.47036e-07
8.47038e-07
8.47037e-07
8.47037e-07
8.47037e-07
8.47038e-07
8.47037e-07
8.48141e-07
8.48477e-07
8.48929e-07
8.48281e-07
8.47036e-07
8.47039e-07
8.47037e-07
8.47039e-07
8.47037e-07
8.47039e-07
8.47037e-07
8.47039e-07
8.47036e-07
8.48555e-07
8.49094e-07
8.48226e-07
8.47037e-07
8.47037e-07
8.47037e-07
8.47037e-07
8.47038e-07
8.47037e-07
8.47038e-07
8.47037e-07
8.47037e-07
8.48553e-07
8.49119e-07
8.48272e-07
8.47036e-07
8.47039e-07
8.47037e-07
8.47039e-07
8.47037e-07
8.47039e-07
8.47037e-07
8.47039e-07
8.47036e-07
8.48551e-07
8.49118e-07
8.48922e-07
8.48138e-07
8.47037e-07
8.47038e-07
8.47037e-07
8.47038e-07
8.47037e-07
8.47038e-07
8.47037e-07
8.48361e-07
8.48534e-07
8.49073e-07
8.48923e-07
8.48391e-07
8.48115e-07
8.47037e-07
8.47039e-07
8.47037e-07
8.47039e-07
8.47036e-07
8.48328e-07
8.48454e-07
8.48562e-07
8.48925e-07
8.48388e-07
8.48141e-07
8.47036e-07
8.47037e-07
8.47036e-07
8.48361e-07
8.48454e-07
8.48538e-07
8.49053e-07
8.48927e-07
8.48477e-07
8.48555e-07
8.48553e-07
8.48551e-07
8.48534e-07
8.48562e-07
8.49053e-07
8.48929e-07
8.49093e-07
8.49119e-07
8.49118e-07
8.49073e-07
8.40942e-07
8.40334e-07
8.40278e-07
8.40325e-07
8.40974e-07
8.40976e-07
8.40946e-07
8.40413e-07
8.40039e-07
8.39089e-07
8.3909e-07
8.39089e-07
8.4019e-07
8.40444e-07
8.40977e-07
8.40413e-07
8.39999e-07
8.39089e-07
8.39091e-07
8.3909e-07
8.39091e-07
8.39089e-07
8.40167e-07
8.40441e-07
8.4098e-07
8.40942e-07
8.40039e-07
8.39089e-07
8.3909e-07
8.39089e-07
8.3909e-07
8.39089e-07
8.3909e-07
8.39089e-07
8.40193e-07
8.4053e-07
8.40982e-07
8.40334e-07
8.39089e-07
8.39091e-07
8.39089e-07
8.39091e-07
8.3909e-07
8.39091e-07
8.39089e-07
8.39091e-07
8.39089e-07
8.40608e-07
8.41147e-07
8.40278e-07
8.39089e-07
8.3909e-07
8.3909e-07
8.3909e-07
8.3909e-07
8.3909e-07
8.3909e-07
8.3909e-07
8.3909e-07
8.40606e-07
8.41171e-07
8.40325e-07
8.39089e-07
8.39091e-07
8.39089e-07
8.39091e-07
8.3909e-07
8.39091e-07
8.39089e-07
8.39091e-07
8.39089e-07
8.40604e-07
8.41171e-07
8.40974e-07
8.4019e-07
8.39089e-07
8.3909e-07
8.39089e-07
8.3909e-07
8.39089e-07
8.3909e-07
8.39089e-07
8.40414e-07
8.40587e-07
8.41125e-07
8.40976e-07
8.40444e-07
8.40167e-07
8.39089e-07
8.39091e-07
8.3909e-07
8.39091e-07
8.39089e-07
8.40381e-07
8.40507e-07
8.40615e-07
8.40977e-07
8.40441e-07
8.40193e-07
8.39089e-07
8.3909e-07
8.39089e-07
8.40414e-07
8.40507e-07
8.4059e-07
8.41106e-07
8.4098e-07
8.4053e-07
8.40608e-07
8.40606e-07
8.40604e-07
8.40587e-07
8.40615e-07
8.41106e-07
8.40982e-07
8.41146e-07
8.41171e-07
8.41171e-07
8.41125e-07
8.32995e-07
8.32386e-07
8.32331e-07
8.32377e-07
8.33027e-07
8.33028e-07
8.32998e-07
8.32466e-07
8.32092e-07
8.31141e-07
8.31142e-07
8.31141e-07
8.32243e-07
8.32497e-07
8.3303e-07
8.32466e-07
8.32052e-07
8.31142e-07
8.31144e-07
8.31142e-07
8.31144e-07
8.31142e-07
8.3222e-07
8.32494e-07
8.33033e-07
8.32994e-07
8.32091e-07
8.31142e-07
8.31143e-07
8.31142e-07
8.31142e-07
8.31142e-07
8.31143e-07
8.31142e-07
8.32246e-07
8.32582e-07
8.33034e-07
8.32386e-07
8.31141e-07
8.31144e-07
8.31142e-07
8.31144e-07
8.31142e-07
8.31144e-07
8.31142e-07
8.31144e-07
8.31141e-07
8.3266e-07
8.33199e-07
8.32331e-07
8.31142e-07
8.31142e-07
8.31142e-07
8.31142e-07
8.31142e-07
8.31142e-07
8.31142e-07
8.31142e-07
8.31142e-07
8.32658e-07
8.33224e-07
8.32377e-07
8.31141e-07
8.31144e-07
8.31142e-07
8.31144e-07
8.31142e-07
8.31144e-07
8.31142e-07
8.31144e-07
8.31141e-07
8.32657e-07
8.33223e-07
8.33027e-07
8.32243e-07
8.31142e-07
8.31143e-07
8.31142e-07
8.31143e-07
8.31142e-07
8.31143e-07
8.31142e-07
8.32467e-07
8.3264e-07
8.33178e-07
8.33028e-07
8.32497e-07
8.3222e-07
8.31142e-07
8.31144e-07
8.31142e-07
8.31144e-07
8.31142e-07
8.32434e-07
8.32559e-07
8.32667e-07
8.3303e-07
8.32494e-07
8.32246e-07
8.31141e-07
8.31142e-07
8.31141e-07
8.32467e-07
8.32559e-07
8.32643e-07
8.33159e-07
8.33033e-07
8.32582e-07
8.3266e-07
8.32658e-07
8.32657e-07
8.3264e-07
8.32667e-07
8.33159e-07
8.33034e-07
8.33199e-07
8.33224e-07
8.33223e-07
8.33178e-07
8.25047e-07
8.24439e-07
8.24384e-07
8.2443e-07
8.2508e-07
8.25081e-07
8.25051e-07
8.24519e-07
8.24144e-07
8.23194e-07
8.23195e-07
8.23194e-07
8.24296e-07
8.24549e-07
8.25083e-07
8.24519e-07
8.24105e-07
8.23194e-07
8.23196e-07
8.23195e-07
8.23196e-07
8.23194e-07
8.24273e-07
8.24546e-07
8.25086e-07
8.25047e-07
8.24144e-07
8.23194e-07
8.23195e-07
8.23195e-07
8.23195e-07
8.23195e-07
8.23195e-07
8.23194e-07
8.24299e-07
8.24635e-07
8.25087e-07
8.24439e-07
8.23194e-07
8.23196e-07
8.23195e-07
8.23196e-07
8.23195e-07
8.23196e-07
8.23195e-07
8.23196e-07
8.23194e-07
8.24713e-07
8.25252e-07
8.24384e-07
8.23195e-07
8.23195e-07
8.23195e-07
8.23195e-07
8.23195e-07
8.23195e-07
8.23195e-07
8.23195e-07
8.23195e-07
8.24711e-07
8.25277e-07
8.2443e-07
8.23194e-07
8.23196e-07
8.23195e-07
8.23196e-07
8.23195e-07
8.23196e-07
8.23195e-07
8.23196e-07
8.23194e-07
8.24709e-07
8.25276e-07
8.2508e-07
8.24296e-07
8.23194e-07
8.23195e-07
8.23195e-07
8.23195e-07
8.23195e-07
8.23195e-07
8.23194e-07
8.24519e-07
8.24692e-07
8.25231e-07
8.25081e-07
8.24549e-07
8.24273e-07
8.23194e-07
8.23196e-07
8.23195e-07
8.23196e-07
8.23194e-07
8.24486e-07
8.24612e-07
8.2472e-07
8.25083e-07
8.24546e-07
8.24299e-07
8.23194e-07
8.23195e-07
8.23194e-07
8.24519e-07
8.24612e-07
8.24696e-07
8.25211e-07
8.25086e-07
8.24635e-07
8.24713e-07
8.24711e-07
8.24709e-07
8.24692e-07
8.2472e-07
8.25211e-07
8.25087e-07
8.25252e-07
8.25277e-07
8.25276e-07
8.25231e-07
8.171e-07
8.16492e-07
8.16437e-07
8.16483e-07
8.17132e-07
8.17134e-07
8.17104e-07
8.16571e-07
8.16197e-07
8.15247e-07
8.15248e-07
8.15247e-07
8.16349e-07
8.16602e-07
8.17135e-07
8.16572e-07
8.16158e-07
8.15247e-07
8.15249e-07
8.15248e-07
8.15249e-07
8.15247e-07
8.16325e-07
8.16599e-07
8.17138e-07
8.171e-07
8.16197e-07
8.15247e-07
8.15248e-07
8.15247e-07
8.15248e-07
8.15247e-07
8.15248e-07
8.15247e-07
8.16352e-07
8.16688e-07
8.1714e-07
8.16492e-07
8.15247e-07
8.15249e-07
8.15247e-07
8.15249e-07
8.15247e-07
8.15249e-07
8.15247e-07
8.15249e-07
8.15247e-07
8.16766e-07
8.17305e-07
8.16437e-07
8.15248e-07
8.15248e-07
8.15248e-07
8.15247e-07
8.15248e-07
8.15247e-07
8.15248e-07
8.15248e-07
8.15248e-07
8.16764e-07
8.17329e-07
8.16483e-07
8.15247e-07
8.15249e-07
8.15247e-07
8.15249e-07
8.15247e-07
8.15249e-07
8.15247e-07
8.15249e-07
8.15247e-07
8.16762e-07
8.17329e-07
8.17132e-07
8.16349e-07
8.15247e-07
8.15248e-07
8.15247e-07
8.15248e-07
8.15247e-07
8.15248e-07
8.15247e-07
8.16572e-07
8.16745e-07
8.17283e-07
8.17134e-07
8.16602e-07
8.16325e-07
8.15247e-07
8.15249e-07
8.15248e-07
8.15249e-07
8.15247e-07
8.16539e-07
8.16665e-07
8.16773e-07
8.17135e-07
8.16599e-07
8.16351e-07
8.15247e-07
8.15248e-07
8.15247e-07
8.16572e-07
8.16665e-07
8.16748e-07
8.17264e-07
8.17138e-07
8.16688e-07
8.16766e-07
8.16764e-07
8.16762e-07
8.16745e-07
8.16773e-07
8.17264e-07
8.1714e-07
8.17304e-07
8.17329e-07
8.17329e-07
8.17283e-07
8.09153e-07
8.08545e-07
8.08489e-07
8.08535e-07
8.09185e-07
8.09186e-07
8.09157e-07
8.08624e-07
8.0825e-07
8.07299e-07
8.073e-07
8.07299e-07
8.08401e-07
8.08655e-07
8.09188e-07
8.08624e-07
8.0821e-07
8.073e-07
8.07302e-07
8.073e-07
8.07302e-07
8.073e-07
8.08378e-07
8.08652e-07
8.09191e-07
8.09153e-07
8.0825e-07
8.073e-07
8.07301e-07
8.073e-07
8.07301e-07
8.073e-07
8.07301e-07
8.073e-07
8.08404e-07
8.0874e-07
8.09192e-07
8.08545e-07
8.07299e-07
8.07302e-07
8.073e-07
8.07302e-07
8.073e-07
8.07302e-07
8.073e-07
8.07302e-07
8.07299e-07
8.08818e-07
8.09357e-07
8.08489e-07
8.073e-07
8.073e-07
8.07301e-07
8.073e-07
8.07301e-07
8.073e-07
8.07301e-07
8.073e-07
8.073e-07
8.08816e-07
8.09382e-07
8.08535e-07
8.07299e-07
8.07302e-07
8.073e-07
8.07302e-07
8.073e-07
8.07302e-07
8.073e-07
8.07302e-07
8.07299e-07
8.08815e-07
8.09381e-07
8.09185e-07
8.08401e-07
8.073e-07
8.07301e-07
8.073e-07
8.07301e-07
8.073e-07
8.07301e-07
8.073e-07
8.08625e-07
8.08798e-07
8.09336e-07
8.09186e-07
8.08655e-07
8.08378e-07
8.073e-07
8.07302e-07
8.073e-07
8.07302e-07
8.073e-07
8.08592e-07
8.08717e-07
8.08825e-07
8.09188e-07
8.08652e-07
8.08404e-07
8.07299e-07
8.073e-07
8.07299e-07
8.08625e-07
8.08717e-07
8.08801e-07
8.09317e-07
8.09191e-07
8.0874e-07
8.08818e-07
8.08816e-07
8.08815e-07
8.08798e-07
8.08825e-07
8.09317e-07
8.09192e-07
8.09357e-07
8.09382e-07
8.09381e-07
8.09336e-07
8.01205e-07
8.00597e-07
8.00542e-07
8.00588e-07
8.01238e-07
8.01239e-07
8.01209e-07
8.00677e-07
8.00302e-07
7.99352e-07
7.99353e-07
7.99352e-07
8.00454e-07
8.00707e-07
8.01241e-07
8.00677e-07
8.00263e-07
7.99353e-07
7.99354e-07
7.99353e-07
7.99354e-07
7.99353e-07
8.00431e-07
8.00704e-07
8.01244e-07
8.01205e-07
8.00302e-07
7.99352e-07
7.99353e-07
7.99353e-07
7.99353e-07
7.99353e-07
7.99353e-07
7.99353e-07
8.00457e-07
8.00793e-07
8.01245e-07
8.00597e-07
7.99352e-07
7.99354e-07
7.99353e-07
7.99354e-07
7.99353e-07
7.99354e-07
7.99353e-07
7.99355e-07
7.99352e-07
8.00871e-07
8.0141e-07
8.00542e-07
7.99353e-07
7.99353e-07
7.99353e-07
7.99353e-07
7.99353e-07
7.99353e-07
7.99353e-07
7.99353e-07
7.99353e-07
8.00869e-07
8.01435e-07
8.00588e-07
7.99352e-07
7.99354e-07
7.99353e-07
7.99354e-07
7.99353e-07
7.99354e-07
7.99353e-07
7.99355e-07
7.99352e-07
8.00867e-07
8.01434e-07
8.01238e-07
8.00454e-07
7.99352e-07
7.99353e-07
7.99353e-07
7.99353e-07
7.99353e-07
7.99354e-07
7.99353e-07
8.00677e-07
8.0085e-07
8.01389e-07
8.01239e-07
8.00707e-07
8.00431e-07
7.99353e-07
7.99354e-07
7.99353e-07
7.99355e-07
7.99353e-07
8.00644e-07
8.0077e-07
8.00878e-07
8.01241e-07
8.00704e-07
8.00457e-07
7.99352e-07
7.99353e-07
7.99352e-07
8.00677e-07
8.0077e-07
8.00854e-07
8.01369e-07
8.01243e-07
8.00793e-07
8.00871e-07
8.00869e-07
8.00867e-07
8.0085e-07
8.00878e-07
8.01369e-07
8.01245e-07
8.0141e-07
8.01435e-07
8.01434e-07
8.01389e-07
7.93258e-07
7.9265e-07
7.92595e-07
7.92641e-07
7.9329e-07
7.93292e-07
7.93262e-07
7.92729e-07
7.92355e-07
7.91405e-07
7.91406e-07
7.91405e-07
7.92507e-07
7.9276e-07
7.93293e-07
7.9273e-07
7.92316e-07
7.91405e-07
7.91407e-07
7.91406e-07
7.91407e-07
7.91405e-07
7.92483e-07
7.92757e-07
7.93296e-07
7.93258e-07
7.92355e-07
7.91405e-07
7.91406e-07
7.91405e-07
7.91406e-07
7.91405e-07
7.91406e-07
7.91405e-07
7.92509e-07
7.92846e-07
7.93298e-07
7.9265e-07
7.91405e-07
7.91407e-07
7.91405e-07
7.91407e-07
7.91405e-07
7.91407e-07
7.91405e-07
7.91407e-07
7.91405e-07
7.92924e-07
7.93463e-07
7.92594e-07
7.91406e-07
7.91406e-07
7.91406e-07
7.91405e-07
7.91406e-07
7.91406e-07
7.91406e-07
7.91406e-07
7.91406e-07
7.92922e-07
7.93487e-07
7.92641e-07
7.91405e-07
7.91407e-07
7.91405e-07
7.91407e-07
7.91406e-07
7.91407e-07
7.91405e-07
7.91407e-07
7.91405e-07
7.9292e-07
7.93487e-07
7.9329e-07
7.92506e-07
7.91405e-07
7.91406e-07
7.91405e-07
7.91406e-07
7.91405e-07
7.91406e-07
7.91405e-07
7.9273e-07
7.92903e-07
7.93442e-07
7.93292e-07
7.9276e-07
7.92483e-07
7.91405e-07
7.91407e-07
7.91406e-07
7.91407e-07
7.91405e-07
7.92697e-07
7.92823e-07
7.92931e-07
7.93293e-07
7.92757e-07
7.92509e-07
7.91405e-07
7.91406e-07
7.91405e-07
7.9273e-07
7.92823e-07
7.92907e-07
7.93422e-07
7.93296e-07
7.92846e-07
7.92924e-07
7.92922e-07
7.9292e-07
7.92903e-07
7.92931e-07
7.93422e-07
7.93298e-07
7.93462e-07
7.93487e-07
7.93487e-07
7.93442e-07
7.85311e-07
7.84703e-07
7.84647e-07
7.84693e-07
7.85343e-07
7.85344e-07
7.85315e-07
7.84782e-07
7.84408e-07
7.83457e-07
7.83458e-07
7.83457e-07
7.84559e-07
7.84813e-07
7.85346e-07
7.84782e-07
7.84368e-07
7.83458e-07
7.8346e-07
7.83458e-07
7.8346e-07
7.83458e-07
7.84536e-07
7.8481e-07
7.85349e-07
7.85311e-07
7.84408e-07
7.83458e-07
7.83459e-07
7.83458e-07
7.83459e-07
7.83458e-07
7.83459e-07
7.83458e-07
7.84562e-07
7.84898e-07
7.8535e-07
7.84703e-07
7.83457e-07
7.8346e-07
7.83458e-07
7.8346e-07
7.83458e-07
7.8346e-07
7.83458e-07
7.8346e-07
7.83458e-07
7.84976e-07
7.85515e-07
7.84647e-07
7.83458e-07
7.83458e-07
7.83459e-07
7.83458e-07
7.83459e-07
7.83458e-07
7.83459e-07
7.83458e-07
7.83458e-07
7.84974e-07
7.8554e-07
7.84693e-07
7.83457e-07
7.8346e-07
7.83458e-07
7.8346e-07
7.83458e-07
7.8346e-07
7.83458e-07
7.8346e-07