/*--------------------------------*- C++ -*----------------------------------*\
| =========                 |                                                 |
| \\      /  F ield         | OpenFOAM: The Open Source CFD Toolbox           |
|  \\    /   O peration     | Version:  v2012                                 |
|   \\  /    A nd           | Website:  www.openfoam.com                      |
|    \\/     M anipulation  |                                                 |
\*---------------------------------------------------------------------------*/
FoamFile
{
    version     2.0;
    format      ascii;
    class       volScalarField;
    location    "3";
    object      p;
}
// * * * * * * * * * * * * * * * * * * * * * * * * * * * * * * * * * * * * * //

dimensions      [0 2 -2 0 0 0 0];


internalField   nonuniform List<scalar> 
292667
(
2.12274e-06
2.09576e-06
2.09343e-06
2.09357e-06
2.09713e-06
2.12374e-06
2.0973e-06
2.0894e-06
2.0853e-06
2.08372e-06
2.08393e-06
2.08606e-06
2.09098e-06
2.09996e-06
2.09729e-06
2.08766e-06
2.08241e-06
2.07964e-06
2.0785e-06
2.07866e-06
2.08016e-06
2.08346e-06
2.0896e-06
2.10068e-06
2.12275e-06
2.0894e-06
2.08241e-06
2.07853e-06
2.07641e-06
2.07551e-06
2.07564e-06
2.07682e-06
2.07931e-06
2.0838e-06
2.09194e-06
2.12623e-06
2.09576e-06
2.0853e-06
2.07964e-06
2.07641e-06
2.07461e-06
2.07383e-06
2.07394e-06
2.07496e-06
2.07707e-06
2.08077e-06
2.08735e-06
2.10676e-06
2.09344e-06
2.08372e-06
2.0785e-06
2.07551e-06
2.07383e-06
2.07311e-06
2.07321e-06
2.07416e-06
2.07612e-06
2.07954e-06
2.0856e-06
2.10141e-06
2.09357e-06
2.08393e-06
2.07866e-06
2.07564e-06
2.07394e-06
2.07321e-06
2.07331e-06
2.07427e-06
2.07625e-06
2.07971e-06
2.08583e-06
2.10106e-06
2.09713e-06
2.08606e-06
2.08016e-06
2.07682e-06
2.07496e-06
2.07416e-06
2.07427e-06
2.07531e-06
2.07749e-06
2.08133e-06
2.0882e-06
2.10781e-06
2.12374e-06
2.09098e-06
2.08346e-06
2.07931e-06
2.07707e-06
2.07612e-06
2.07625e-06
2.07749e-06
2.08013e-06
2.08493e-06
2.09364e-06
2.12739e-06
2.09996e-06
2.0896e-06
2.0838e-06
2.08077e-06
2.07954e-06
2.07971e-06
2.08133e-06
2.08493e-06
2.09167e-06
2.10877e-06
2.10068e-06
2.09194e-06
2.08735e-06
2.0856e-06
2.08582e-06
2.0882e-06
2.09363e-06
2.10877e-06
2.12623e-06
2.10676e-06
2.10141e-06
2.10106e-06
2.10781e-06
2.12739e-06
2.05948e-06
2.05734e-06
2.05732e-06
2.05735e-06
2.05898e-06
2.05931e-06
2.05948e-06
2.0579e-06
2.05727e-06
2.05464e-06
2.0546e-06
2.05463e-06
2.05697e-06
2.05763e-06
2.05916e-06
2.0579e-06
2.05722e-06
2.05448e-06
2.05454e-06
2.05454e-06
2.05454e-06
2.05449e-06
2.0568e-06
2.05763e-06
2.05916e-06
2.05948e-06
2.05727e-06
2.05448e-06
2.05448e-06
2.05449e-06
2.05449e-06
2.05449e-06
2.05449e-06
2.05448e-06
2.05684e-06
2.05767e-06
2.05962e-06
2.05734e-06
2.05464e-06
2.05454e-06
2.05449e-06
2.05446e-06
2.05445e-06
2.05446e-06
2.05449e-06
2.05454e-06
2.05465e-06
2.05737e-06
2.05902e-06
2.05732e-06
2.0546e-06
2.05454e-06
2.05449e-06
2.05445e-06
2.05444e-06
2.05445e-06
2.05449e-06
2.05454e-06
2.0546e-06
2.05707e-06
2.05874e-06
2.05735e-06
2.05463e-06
2.05454e-06
2.05449e-06
2.05446e-06
2.05445e-06
2.05446e-06
2.05449e-06
2.05454e-06
2.05463e-06
2.05719e-06
2.05876e-06
2.05898e-06
2.05697e-06
2.05449e-06
2.05449e-06
2.05449e-06
2.05449e-06
2.05449e-06
2.05449e-06
2.05449e-06
2.05648e-06
2.05751e-06
2.05926e-06
2.05931e-06
2.05763e-06
2.0568e-06
2.05448e-06
2.05454e-06
2.05454e-06
2.05454e-06
2.05449e-06
2.05639e-06
2.0573e-06
2.05784e-06
2.05916e-06
2.05763e-06
2.05684e-06
2.05465e-06
2.0546e-06
2.05463e-06
2.05648e-06
2.0573e-06
2.05788e-06
2.05941e-06
2.05916e-06
2.05767e-06
2.05737e-06
2.05707e-06
2.05719e-06
2.05751e-06
2.05784e-06
2.05941e-06
2.05962e-06
2.05902e-06
2.05874e-06
2.05876e-06
2.05926e-06
2.04187e-06
2.04006e-06
2.03997e-06
2.04002e-06
2.04156e-06
2.04189e-06
2.04207e-06
2.04041e-06
2.03975e-06
2.03686e-06
2.03686e-06
2.03686e-06
2.03952e-06
2.04015e-06
2.04176e-06
2.04038e-06
2.03974e-06
2.03692e-06
2.03688e-06
2.03688e-06
2.03688e-06
2.03692e-06
2.03941e-06
2.04016e-06
2.04175e-06
2.04187e-06
2.03975e-06
2.03692e-06
2.0369e-06
2.0369e-06
2.03689e-06
2.0369e-06
2.0369e-06
2.03692e-06
2.0394e-06
2.04019e-06
2.04194e-06
2.04006e-06
2.03686e-06
2.03688e-06
2.0369e-06
2.0369e-06
2.0369e-06
2.0369e-06
2.0369e-06
2.03688e-06
2.03686e-06
2.03982e-06
2.04176e-06
2.03997e-06
2.03686e-06
2.03688e-06
2.03689e-06
2.0369e-06
2.0369e-06
2.0369e-06
2.0369e-06
2.03688e-06
2.03687e-06
2.03966e-06
2.04161e-06
2.04002e-06
2.03686e-06
2.03688e-06
2.0369e-06
2.0369e-06
2.0369e-06
2.0369e-06
2.0369e-06
2.03689e-06
2.03687e-06
2.03971e-06
2.04162e-06
2.04156e-06
2.03952e-06
2.03692e-06
2.0369e-06
2.0369e-06
2.0369e-06
2.0369e-06
2.0369e-06
2.03692e-06
2.03908e-06
2.04003e-06
2.04187e-06
2.04189e-06
2.04015e-06
2.03941e-06
2.03692e-06
2.03688e-06
2.03688e-06
2.03689e-06
2.03692e-06
2.03903e-06
2.03986e-06
2.04038e-06
2.04176e-06
2.04016e-06
2.0394e-06
2.03686e-06
2.03687e-06
2.03687e-06
2.03908e-06
2.03986e-06
2.04042e-06
2.04199e-06
2.04175e-06
2.04019e-06
2.03982e-06
2.03966e-06
2.03971e-06
2.04003e-06
2.04037e-06
2.04199e-06
2.04193e-06
2.04176e-06
2.04161e-06
2.04161e-06
2.04186e-06
2.02453e-06
2.02273e-06
2.02258e-06
2.02266e-06
2.02423e-06
2.02453e-06
2.0247e-06
2.02297e-06
2.02233e-06
2.01937e-06
2.01937e-06
2.01937e-06
2.02212e-06
2.02273e-06
2.02437e-06
2.02299e-06
2.02229e-06
2.01939e-06
2.01938e-06
2.01938e-06
2.01938e-06
2.01939e-06
2.02199e-06
2.02272e-06
2.02437e-06
2.02453e-06
2.02233e-06
2.01939e-06
2.01939e-06
2.01939e-06
2.0194e-06
2.01939e-06
2.01939e-06
2.01939e-06
2.022e-06
2.02281e-06
2.02459e-06
2.02273e-06
2.01937e-06
2.01938e-06
2.0194e-06
2.0194e-06
2.0194e-06
2.0194e-06
2.0194e-06
2.01938e-06
2.01937e-06
2.02249e-06
2.02444e-06
2.02258e-06
2.01937e-06
2.01938e-06
2.0194e-06
2.0194e-06
2.0194e-06
2.0194e-06
2.0194e-06
2.01938e-06
2.01937e-06
2.02236e-06
2.02441e-06
2.02266e-06
2.01937e-06
2.01938e-06
2.0194e-06
2.0194e-06
2.0194e-06
2.0194e-06
2.0194e-06
2.01938e-06
2.01937e-06
2.0224e-06
2.02436e-06
2.02423e-06
2.02212e-06
2.01939e-06
2.01939e-06
2.0194e-06
2.0194e-06
2.0194e-06
2.01939e-06
2.01939e-06
2.0217e-06
2.02266e-06
2.02453e-06
2.02453e-06
2.02273e-06
2.02199e-06
2.01939e-06
2.01938e-06
2.01938e-06
2.01938e-06
2.01939e-06
2.02164e-06
2.02244e-06
2.02298e-06
2.02437e-06
2.02272e-06
2.022e-06
2.01937e-06
2.01937e-06
2.01937e-06
2.0217e-06
2.02244e-06
2.02298e-06
2.02461e-06
2.02437e-06
2.02281e-06
2.02249e-06
2.02236e-06
2.0224e-06
2.02266e-06
2.02299e-06
2.02462e-06
2.02459e-06
2.02444e-06
2.02441e-06
2.02436e-06
2.02454e-06
2.00715e-06
2.00535e-06
2.00518e-06
2.00527e-06
2.00686e-06
2.00716e-06
2.00731e-06
2.00559e-06
2.00494e-06
2.00192e-06
2.00192e-06
2.00192e-06
2.00473e-06
2.00535e-06
2.00699e-06
2.0056e-06
2.00489e-06
2.00194e-06
2.00193e-06
2.00193e-06
2.00193e-06
2.00194e-06
2.00461e-06
2.00534e-06
2.00699e-06
2.00716e-06
2.00494e-06
2.00194e-06
2.00194e-06
2.00194e-06
2.00195e-06
2.00194e-06
2.00194e-06
2.00194e-06
2.00463e-06
2.00543e-06
2.00722e-06
2.00535e-06
2.00192e-06
2.00193e-06
2.00194e-06
2.00195e-06
2.00195e-06
2.00195e-06
2.00194e-06
2.00193e-06
2.00192e-06
2.00512e-06
2.00708e-06
2.00518e-06
2.00192e-06
2.00193e-06
2.00195e-06
2.00195e-06
2.00195e-06
2.00195e-06
2.00195e-06
2.00193e-06
2.00192e-06
2.005e-06
2.00711e-06
2.00527e-06
2.00192e-06
2.00193e-06
2.00194e-06
2.00195e-06
2.00195e-06
2.00195e-06
2.00194e-06
2.00193e-06
2.00192e-06
2.00504e-06
2.00702e-06
2.00686e-06
2.00473e-06
2.00194e-06
2.00194e-06
2.00194e-06
2.00195e-06
2.00194e-06
2.00194e-06
2.00194e-06
2.00433e-06
2.00528e-06
2.00716e-06
2.00716e-06
2.00535e-06
2.00461e-06
2.00194e-06
2.00193e-06
2.00193e-06
2.00193e-06
2.00194e-06
2.00429e-06
2.00506e-06
2.0056e-06
2.00699e-06
2.00534e-06
2.00463e-06
2.00192e-06
2.00192e-06
2.00192e-06
2.00433e-06
2.00506e-06
2.00559e-06
2.00723e-06
2.00699e-06
2.00543e-06
2.00512e-06
2.005e-06
2.00504e-06
2.00528e-06
2.0056e-06
2.00723e-06
2.00722e-06
2.00708e-06
2.0071e-06
2.00702e-06
2.00716e-06
1.98977e-06
1.98796e-06
1.98778e-06
1.98788e-06
1.98947e-06
1.98977e-06
1.98994e-06
1.98822e-06
1.98755e-06
1.98451e-06
1.98451e-06
1.9845e-06
1.98734e-06
1.98796e-06
1.98961e-06
1.9882e-06
1.98749e-06
1.98451e-06
1.98451e-06
1.98451e-06
1.98451e-06
1.98451e-06
1.98723e-06
1.98795e-06
1.98961e-06
1.98977e-06
1.98754e-06
1.98451e-06
1.98451e-06
1.98452e-06
1.98452e-06
1.98452e-06
1.98451e-06
1.98451e-06
1.98725e-06
1.98804e-06
1.98984e-06
1.98796e-06
1.9845e-06
1.98451e-06
1.98452e-06
1.98452e-06
1.98453e-06
1.98452e-06
1.98452e-06
1.98451e-06
1.9845e-06
1.98773e-06
1.9897e-06
1.98777e-06
1.9845e-06
1.98451e-06
1.98452e-06
1.98453e-06
1.98453e-06
1.98453e-06
1.98452e-06
1.98451e-06
1.98451e-06
1.98761e-06
1.98974e-06
1.98788e-06
1.9845e-06
1.98451e-06
1.98452e-06
1.98452e-06
1.98453e-06
1.98452e-06
1.98452e-06
1.98451e-06
1.9845e-06
1.98766e-06
1.98966e-06
1.98947e-06
1.98734e-06
1.98451e-06
1.98451e-06
1.98452e-06
1.98452e-06
1.98452e-06
1.98451e-06
1.98451e-06
1.98695e-06
1.98789e-06
1.98978e-06
1.98977e-06
1.98796e-06
1.98723e-06
1.98451e-06
1.98451e-06
1.98451e-06
1.98451e-06
1.98451e-06
1.98691e-06
1.98768e-06
1.98822e-06
1.9896e-06
1.98795e-06
1.98724e-06
1.9845e-06
1.9845e-06
1.9845e-06
1.98695e-06
1.98767e-06
1.98821e-06
1.98986e-06
1.98961e-06
1.98804e-06
1.98773e-06
1.98761e-06
1.98766e-06
1.98789e-06
1.98821e-06
1.98985e-06
1.98984e-06
1.98969e-06
1.98973e-06
1.98965e-06
1.98978e-06
1.97238e-06
1.97057e-06
1.97038e-06
1.97048e-06
1.97208e-06
1.97238e-06
1.97255e-06
1.97083e-06
1.97015e-06
1.9671e-06
1.9671e-06
1.9671e-06
1.96994e-06
1.97057e-06
1.97222e-06
1.97081e-06
1.9701e-06
1.9671e-06
1.9671e-06
1.9671e-06
1.9671e-06
1.9671e-06
1.96984e-06
1.97056e-06
1.97222e-06
1.97238e-06
1.97015e-06
1.9671e-06
1.96711e-06
1.96711e-06
1.96711e-06
1.96711e-06
1.96711e-06
1.9671e-06
1.96985e-06
1.97065e-06
1.97245e-06
1.97056e-06
1.9671e-06
1.9671e-06
1.96711e-06
1.96711e-06
1.96711e-06
1.96711e-06
1.96711e-06
1.9671e-06
1.9671e-06
1.97034e-06
1.9723e-06
1.97038e-06
1.9671e-06
1.9671e-06
1.96711e-06
1.96711e-06
1.96712e-06
1.96711e-06
1.96711e-06
1.9671e-06
1.9671e-06
1.97022e-06
1.97235e-06
1.97048e-06
1.9671e-06
1.9671e-06
1.96711e-06
1.96711e-06
1.96711e-06
1.96711e-06
1.96711e-06
1.9671e-06
1.9671e-06
1.97027e-06
1.97227e-06
1.97208e-06
1.96994e-06
1.9671e-06
1.96711e-06
1.96711e-06
1.96711e-06
1.96711e-06
1.96711e-06
1.9671e-06
1.96956e-06
1.9705e-06
1.97239e-06
1.97238e-06
1.97057e-06
1.96983e-06
1.9671e-06
1.9671e-06
1.9671e-06
1.9671e-06
1.9671e-06
1.96953e-06
1.97029e-06
1.97083e-06
1.97222e-06
1.97056e-06
1.96985e-06
1.9671e-06
1.9671e-06
1.9671e-06
1.96955e-06
1.97028e-06
1.97082e-06
1.97247e-06
1.97222e-06
1.97065e-06
1.97034e-06
1.97022e-06
1.97027e-06
1.9705e-06
1.97082e-06
1.97246e-06
1.97245e-06
1.9723e-06
1.97235e-06
1.97227e-06
1.97239e-06
1.95499e-06
1.95317e-06
1.95299e-06
1.95309e-06
1.95469e-06
1.95499e-06
1.95516e-06
1.95343e-06
1.95276e-06
1.9497e-06
1.9497e-06
1.9497e-06
1.95255e-06
1.95318e-06
1.95482e-06
1.95342e-06
1.9527e-06
1.9497e-06
1.9497e-06
1.9497e-06
1.9497e-06
1.9497e-06
1.95244e-06
1.95317e-06
1.95482e-06
1.95499e-06
1.95275e-06
1.9497e-06
1.9497e-06
1.94971e-06
1.94971e-06
1.94971e-06
1.9497e-06
1.9497e-06
1.95246e-06
1.95325e-06
1.95505e-06
1.95317e-06
1.9497e-06
1.9497e-06
1.94971e-06
1.94971e-06
1.94971e-06
1.94971e-06
1.94971e-06
1.9497e-06
1.9497e-06
1.95295e-06
1.95491e-06
1.95298e-06
1.9497e-06
1.9497e-06
1.94971e-06
1.94971e-06
1.94971e-06
1.94971e-06
1.94971e-06
1.9497e-06
1.9497e-06
1.95282e-06
1.95497e-06
1.95309e-06
1.9497e-06
1.9497e-06
1.94971e-06
1.94971e-06
1.94971e-06
1.94971e-06
1.94971e-06
1.9497e-06
1.9497e-06
1.95288e-06
1.95488e-06
1.95469e-06
1.95255e-06
1.9497e-06
1.9497e-06
1.94971e-06
1.94971e-06
1.94971e-06
1.9497e-06
1.9497e-06
1.95216e-06
1.9531e-06
1.955e-06
1.95499e-06
1.95318e-06
1.95244e-06
1.9497e-06
1.9497e-06
1.9497e-06
1.9497e-06
1.9497e-06
1.95213e-06
1.95289e-06
1.95343e-06
1.95482e-06
1.95317e-06
1.95246e-06
1.9497e-06
1.9497e-06
1.9497e-06
1.95216e-06
1.95289e-06
1.95342e-06
1.95507e-06
1.95483e-06
1.95325e-06
1.95295e-06
1.95283e-06
1.95288e-06
1.95311e-06
1.95344e-06
1.95508e-06
1.95505e-06
1.95491e-06
1.95497e-06
1.95488e-06
1.955e-06
1.9376e-06
1.93578e-06
1.93559e-06
1.9357e-06
1.9373e-06
1.9376e-06
1.93777e-06
1.93604e-06
1.93536e-06
1.9323e-06
1.9323e-06
1.9323e-06
1.93516e-06
1.93579e-06
1.93743e-06
1.93603e-06
1.93531e-06
1.9323e-06
1.9323e-06
1.93231e-06
1.93231e-06
1.9323e-06
1.93505e-06
1.93577e-06
1.93743e-06
1.93759e-06
1.93536e-06
1.9323e-06
1.93231e-06
1.93231e-06
1.93231e-06
1.93231e-06
1.93231e-06
1.9323e-06
1.93506e-06
1.93586e-06
1.93766e-06
1.93578e-06
1.9323e-06
1.93231e-06
1.93231e-06
1.93231e-06
1.93231e-06
1.93231e-06
1.93231e-06
1.9323e-06
1.9323e-06
1.93555e-06
1.93752e-06
1.93559e-06
1.9323e-06
1.93231e-06
1.93231e-06
1.93231e-06
1.93231e-06
1.93231e-06
1.93231e-06
1.93231e-06
1.9323e-06
1.93543e-06
1.93757e-06
1.93569e-06
1.9323e-06
1.93231e-06
1.93231e-06
1.93231e-06
1.93231e-06
1.93231e-06
1.93231e-06
1.9323e-06
1.9323e-06
1.93549e-06
1.93748e-06
1.9373e-06
1.93516e-06
1.9323e-06
1.93231e-06
1.93231e-06
1.93231e-06
1.93231e-06
1.93231e-06
1.9323e-06
1.93477e-06
1.93571e-06
1.9376e-06
1.9376e-06
1.93579e-06
1.93505e-06
1.9323e-06
1.93231e-06
1.93231e-06
1.93231e-06
1.93231e-06
1.93474e-06
1.9355e-06
1.93603e-06
1.93743e-06
1.93578e-06
1.93507e-06
1.9323e-06
1.9323e-06
1.9323e-06
1.93477e-06
1.9355e-06
1.93602e-06
1.93767e-06
1.93743e-06
1.93586e-06
1.93555e-06
1.93543e-06
1.93549e-06
1.93571e-06
1.93604e-06
1.93768e-06
1.93766e-06
1.93752e-06
1.93757e-06
1.93749e-06
1.93761e-06
1.9202e-06
1.91838e-06
1.9182e-06
1.9183e-06
1.9199e-06
1.9202e-06
1.92037e-06
1.91864e-06
1.91797e-06
1.91491e-06
1.91491e-06
1.91491e-06
1.91776e-06
1.91839e-06
1.92004e-06
1.91864e-06
1.91791e-06
1.91491e-06
1.91491e-06
1.91491e-06
1.91491e-06
1.91491e-06
1.91765e-06
1.91838e-06
1.92004e-06
1.9202e-06
1.91797e-06
1.91491e-06
1.91491e-06
1.91491e-06
1.91491e-06
1.91491e-06
1.91491e-06
1.91491e-06
1.91767e-06
1.91847e-06
1.92027e-06
1.91838e-06
1.91491e-06
1.91491e-06
1.91491e-06
1.91491e-06
1.91491e-06
1.91491e-06
1.91491e-06
1.91491e-06
1.91491e-06
1.91816e-06
1.92012e-06
1.9182e-06
1.91491e-06
1.91491e-06
1.91491e-06
1.91491e-06
1.91491e-06
1.91491e-06
1.91491e-06
1.91491e-06
1.91491e-06
1.91804e-06
1.92018e-06
1.9183e-06
1.91491e-06
1.91491e-06
1.91491e-06
1.91491e-06
1.91491e-06
1.91491e-06
1.91491e-06
1.91491e-06
1.91491e-06
1.91809e-06
1.92009e-06
1.9199e-06
1.91776e-06
1.91491e-06
1.91491e-06
1.91491e-06
1.91491e-06
1.91491e-06
1.91491e-06
1.91491e-06
1.91738e-06
1.91832e-06
1.92021e-06
1.9202e-06
1.91839e-06
1.91765e-06
1.91491e-06
1.91491e-06
1.91491e-06
1.91491e-06
1.91491e-06
1.91735e-06
1.91811e-06
1.91865e-06
1.92004e-06
1.91838e-06
1.91767e-06
1.91491e-06
1.91491e-06
1.91491e-06
1.91737e-06
1.9181e-06
1.91864e-06
1.92029e-06
1.92004e-06
1.91847e-06
1.91816e-06
1.91804e-06
1.91809e-06
1.91832e-06
1.91864e-06
1.92028e-06
1.92027e-06
1.92013e-06
1.92018e-06
1.92009e-06
1.92021e-06
1.90281e-06
1.90099e-06
1.9008e-06
1.90091e-06
1.90251e-06
1.90281e-06
1.90298e-06
1.90125e-06
1.90057e-06
1.89751e-06
1.89751e-06
1.89751e-06
1.90037e-06
1.901e-06
1.90264e-06
1.90125e-06
1.90052e-06
1.89752e-06
1.89752e-06
1.89752e-06
1.89751e-06
1.89751e-06
1.90026e-06
1.90099e-06
1.90265e-06
1.90281e-06
1.90057e-06
1.89752e-06
1.89752e-06
1.89752e-06
1.89752e-06
1.89752e-06
1.89752e-06
1.89751e-06
1.90028e-06
1.90107e-06
1.90287e-06
1.90099e-06
1.89751e-06
1.89752e-06
1.89752e-06
1.89752e-06
1.89752e-06
1.89752e-06
1.89752e-06
1.89752e-06
1.89751e-06
1.90076e-06
1.90273e-06
1.9008e-06
1.89751e-06
1.89752e-06
1.89752e-06
1.89752e-06
1.89752e-06
1.89752e-06
1.89752e-06
1.89752e-06
1.89751e-06
1.90064e-06
1.90279e-06
1.90091e-06
1.89751e-06
1.89752e-06
1.89752e-06
1.89752e-06
1.89752e-06
1.89752e-06
1.89752e-06
1.89751e-06
1.89751e-06
1.9007e-06
1.9027e-06
1.90251e-06
1.90037e-06
1.89752e-06
1.89752e-06
1.89752e-06
1.89752e-06
1.89752e-06
1.89752e-06
1.89751e-06
1.89998e-06
1.90092e-06
1.90282e-06
1.90281e-06
1.901e-06
1.90026e-06
1.89752e-06
1.89752e-06
1.89752e-06
1.89752e-06
1.89752e-06
1.89995e-06
1.90071e-06
1.90125e-06
1.90264e-06
1.90099e-06
1.90028e-06
1.89752e-06
1.89752e-06
1.89752e-06
1.89998e-06
1.90071e-06
1.90124e-06
1.90289e-06
1.90265e-06
1.90107e-06
1.90077e-06
1.90065e-06
1.9007e-06
1.90093e-06
1.90125e-06
1.90289e-06
1.90287e-06
1.90273e-06
1.90279e-06
1.9027e-06
1.90282e-06
1.88541e-06
1.8836e-06
1.88341e-06
1.88351e-06
1.88512e-06
1.88542e-06
1.88559e-06
1.88386e-06
1.88318e-06
1.88012e-06
1.88012e-06
1.88012e-06
1.88297e-06
1.88361e-06
1.88525e-06
1.88385e-06
1.88313e-06
1.88012e-06
1.88012e-06
1.88012e-06
1.88012e-06
1.88012e-06
1.88287e-06
1.88359e-06
1.88525e-06
1.88541e-06
1.88318e-06
1.88012e-06
1.88012e-06
1.88012e-06
1.88012e-06
1.88012e-06
1.88012e-06
1.88012e-06
1.88288e-06
1.88368e-06
1.88548e-06
1.8836e-06
1.88012e-06
1.88012e-06
1.88012e-06
1.88012e-06
1.88012e-06
1.88012e-06
1.88012e-06
1.88012e-06
1.88012e-06
1.88337e-06
1.88534e-06
1.88341e-06
1.88012e-06
1.88012e-06
1.88012e-06
1.88012e-06
1.88012e-06
1.88012e-06
1.88012e-06
1.88012e-06
1.88012e-06
1.88325e-06
1.88539e-06
1.88351e-06
1.88012e-06
1.88012e-06
1.88012e-06
1.88012e-06
1.88012e-06
1.88012e-06
1.88012e-06
1.88012e-06
1.88012e-06
1.88331e-06
1.88531e-06
1.88512e-06
1.88298e-06
1.88012e-06
1.88012e-06
1.88012e-06
1.88012e-06
1.88012e-06
1.88012e-06
1.88012e-06
1.88259e-06
1.88353e-06
1.88542e-06
1.88542e-06
1.88361e-06
1.88287e-06
1.88012e-06
1.88012e-06
1.88012e-06
1.88012e-06
1.88012e-06
1.88256e-06
1.88332e-06
1.88385e-06
1.88525e-06
1.8836e-06
1.88288e-06
1.88012e-06
1.88012e-06
1.88012e-06
1.88259e-06
1.88332e-06
1.88385e-06
1.88549e-06
1.88525e-06
1.88368e-06
1.88337e-06
1.88325e-06
1.88331e-06
1.88353e-06
1.88386e-06
1.8855e-06
1.88548e-06
1.88534e-06
1.8854e-06
1.88531e-06
1.88543e-06
1.86802e-06
1.8662e-06
1.86602e-06
1.86612e-06
1.86772e-06
1.86802e-06
1.86819e-06
1.86646e-06
1.86579e-06
1.86273e-06
1.86273e-06
1.86273e-06
1.86558e-06
1.86621e-06
1.86786e-06
1.86646e-06
1.86573e-06
1.86273e-06
1.86273e-06
1.86273e-06
1.86273e-06
1.86273e-06
1.86547e-06
1.8662e-06
1.86786e-06
1.86802e-06
1.86579e-06
1.86273e-06
1.86273e-06
1.86273e-06
1.86273e-06
1.86273e-06
1.86273e-06
1.86273e-06
1.86549e-06
1.86629e-06
1.86809e-06
1.8662e-06
1.86273e-06
1.86273e-06
1.86273e-06
1.86273e-06
1.86273e-06
1.86273e-06
1.86273e-06
1.86273e-06
1.86273e-06
1.86598e-06
1.86794e-06
1.86602e-06
1.86273e-06
1.86273e-06
1.86273e-06
1.86273e-06
1.86273e-06
1.86273e-06
1.86273e-06
1.86273e-06
1.86273e-06
1.86586e-06
1.868e-06
1.86612e-06
1.86273e-06
1.86273e-06
1.86273e-06
1.86273e-06
1.86273e-06
1.86273e-06
1.86273e-06
1.86273e-06
1.86273e-06
1.86591e-06
1.86791e-06
1.86772e-06
1.86558e-06
1.86273e-06
1.86273e-06
1.86273e-06
1.86273e-06
1.86273e-06
1.86273e-06
1.86273e-06
1.86519e-06
1.86614e-06
1.86803e-06
1.86802e-06
1.86621e-06
1.86547e-06
1.86273e-06
1.86273e-06
1.86273e-06
1.86273e-06
1.86273e-06
1.86517e-06
1.86593e-06
1.86646e-06
1.86786e-06
1.8662e-06
1.86549e-06
1.86273e-06
1.86273e-06
1.86273e-06
1.86519e-06
1.86592e-06
1.86646e-06
1.8681e-06
1.86786e-06
1.86629e-06
1.86598e-06
1.86586e-06
1.86591e-06
1.86614e-06
1.86646e-06
1.8681e-06
1.86809e-06
1.86795e-06
1.868e-06
1.86791e-06
1.86803e-06
1.85063e-06
1.84881e-06
1.84862e-06
1.84873e-06
1.85033e-06
1.85063e-06
1.8508e-06
1.84907e-06
1.84839e-06
1.84533e-06
1.84533e-06
1.84533e-06
1.84819e-06
1.84882e-06
1.85046e-06
1.84907e-06
1.84834e-06
1.84533e-06
1.84533e-06
1.84533e-06
1.84533e-06
1.84533e-06
1.84808e-06
1.84881e-06
1.85047e-06
1.85063e-06
1.84839e-06
1.84533e-06
1.84533e-06
1.84533e-06
1.84533e-06
1.84533e-06
1.84533e-06
1.84533e-06
1.8481e-06
1.84889e-06
1.85069e-06
1.84881e-06
1.84533e-06
1.84533e-06
1.84533e-06
1.84533e-06
1.84533e-06
1.84533e-06
1.84533e-06
1.84533e-06
1.84533e-06
1.84858e-06
1.85055e-06
1.84862e-06
1.84533e-06
1.84533e-06
1.84533e-06
1.84533e-06
1.84533e-06
1.84533e-06
1.84533e-06
1.84533e-06
1.84533e-06
1.84846e-06
1.85061e-06
1.84873e-06
1.84533e-06
1.84533e-06
1.84533e-06
1.84533e-06
1.84533e-06
1.84533e-06
1.84533e-06
1.84533e-06
1.84533e-06
1.84852e-06
1.85052e-06
1.85033e-06
1.84819e-06
1.84533e-06
1.84533e-06
1.84533e-06
1.84533e-06
1.84533e-06
1.84533e-06
1.84533e-06
1.8478e-06
1.84874e-06
1.85064e-06
1.85063e-06
1.84882e-06
1.84808e-06
1.84533e-06
1.84533e-06
1.84533e-06
1.84533e-06
1.84533e-06
1.84777e-06
1.84853e-06
1.84907e-06
1.85046e-06
1.84881e-06
1.8481e-06
1.84533e-06
1.84533e-06
1.84533e-06
1.8478e-06
1.84853e-06
1.84906e-06
1.85071e-06
1.85047e-06
1.84889e-06
1.84858e-06
1.84846e-06
1.84852e-06
1.84874e-06
1.84907e-06
1.85071e-06
1.85069e-06
1.85055e-06
1.85061e-06
1.85052e-06
1.85064e-06
1.83323e-06
1.83142e-06
1.83123e-06
1.83133e-06
1.83294e-06
1.83324e-06
1.83341e-06
1.83167e-06
1.831e-06
1.82794e-06
1.82794e-06
1.82794e-06
1.83079e-06
1.83143e-06
1.83307e-06
1.83167e-06
1.83095e-06
1.82794e-06
1.82794e-06
1.82794e-06
1.82794e-06
1.82794e-06
1.83069e-06
1.83141e-06
1.83307e-06
1.83323e-06
1.831e-06
1.82794e-06
1.82794e-06
1.82794e-06
1.82794e-06
1.82794e-06
1.82794e-06
1.82794e-06
1.8307e-06
1.8315e-06
1.8333e-06
1.83142e-06
1.82794e-06
1.82794e-06
1.82794e-06
1.82794e-06
1.82794e-06
1.82794e-06
1.82794e-06
1.82794e-06
1.82794e-06
1.83119e-06
1.83316e-06
1.83123e-06
1.82794e-06
1.82794e-06
1.82794e-06
1.82794e-06
1.82794e-06
1.82794e-06
1.82794e-06
1.82794e-06
1.82794e-06
1.83107e-06
1.83321e-06
1.83133e-06
1.82794e-06
1.82794e-06
1.82794e-06
1.82794e-06
1.82794e-06
1.82794e-06
1.82794e-06
1.82794e-06
1.82794e-06
1.83113e-06
1.83313e-06
1.83294e-06
1.8308e-06
1.82794e-06
1.82794e-06
1.82794e-06
1.82794e-06
1.82794e-06
1.82794e-06
1.82794e-06
1.83041e-06
1.83135e-06
1.83324e-06
1.83324e-06
1.83143e-06
1.83069e-06
1.82794e-06
1.82794e-06
1.82794e-06
1.82794e-06
1.82794e-06
1.83038e-06
1.83114e-06
1.83168e-06
1.83307e-06
1.83141e-06
1.8307e-06
1.82794e-06
1.82794e-06
1.82794e-06
1.83041e-06
1.83114e-06
1.83167e-06
1.83332e-06
1.83307e-06
1.8315e-06
1.83119e-06
1.83107e-06
1.83113e-06
1.83135e-06
1.83168e-06
1.83332e-06
1.8333e-06
1.83316e-06
1.83321e-06
1.83313e-06
1.83324e-06
1.81584e-06
1.81402e-06
1.81384e-06
1.81394e-06
1.81554e-06
1.81584e-06
1.81601e-06
1.81428e-06
1.81361e-06
1.81055e-06
1.81055e-06
1.81055e-06
1.8134e-06
1.81403e-06
1.81568e-06
1.81428e-06
1.81355e-06
1.81055e-06
1.81055e-06
1.81055e-06
1.81055e-06
1.81055e-06
1.81329e-06
1.81402e-06
1.81568e-06
1.81584e-06
1.81361e-06
1.81055e-06
1.81055e-06
1.81055e-06
1.81055e-06
1.81055e-06
1.81055e-06
1.81055e-06
1.81331e-06
1.81411e-06
1.81591e-06
1.81402e-06
1.81055e-06
1.81055e-06
1.81055e-06
1.81055e-06
1.81055e-06
1.81055e-06
1.81055e-06
1.81055e-06
1.81055e-06
1.8138e-06
1.81576e-06
1.81384e-06
1.81055e-06
1.81055e-06
1.81055e-06
1.81055e-06
1.81055e-06
1.81055e-06
1.81055e-06
1.81055e-06
1.81055e-06
1.81368e-06
1.81582e-06
1.81394e-06
1.81055e-06
1.81055e-06
1.81055e-06
1.81055e-06
1.81055e-06
1.81055e-06
1.81055e-06
1.81055e-06
1.81055e-06
1.81373e-06
1.81573e-06
1.81554e-06
1.8134e-06
1.81055e-06
1.81055e-06
1.81055e-06
1.81055e-06
1.81055e-06
1.81055e-06
1.81055e-06
1.81301e-06
1.81396e-06
1.81585e-06
1.81584e-06
1.81403e-06
1.81329e-06
1.81055e-06
1.81055e-06
1.81055e-06
1.81055e-06
1.81055e-06
1.81298e-06
1.81375e-06
1.81428e-06
1.81568e-06
1.81402e-06
1.81331e-06
1.81055e-06
1.81055e-06
1.81055e-06
1.81301e-06
1.81374e-06
1.81428e-06
1.81592e-06
1.81568e-06
1.81411e-06
1.8138e-06
1.81368e-06
1.81373e-06
1.81396e-06
1.81428e-06
1.81592e-06
1.81591e-06
1.81576e-06
1.81582e-06
1.81573e-06
1.81585e-06
1.79845e-06
1.79663e-06
1.79644e-06
1.79655e-06
1.79815e-06
1.79845e-06
1.79862e-06
1.79689e-06
1.79621e-06
1.79315e-06
1.79315e-06
1.79315e-06
1.79601e-06
1.79664e-06
1.79828e-06
1.79689e-06
1.79616e-06
1.79315e-06
1.79315e-06
1.79315e-06
1.79315e-06
1.79315e-06
1.7959e-06
1.79663e-06
1.79828e-06
1.79845e-06
1.79621e-06
1.79315e-06
1.79315e-06
1.79315e-06
1.79315e-06
1.79315e-06
1.79315e-06
1.79315e-06
1.79592e-06
1.79671e-06
1.79851e-06
1.79663e-06
1.79315e-06
1.79315e-06
1.79315e-06
1.79315e-06
1.79315e-06
1.79315e-06
1.79315e-06
1.79315e-06
1.79315e-06
1.7964e-06
1.79837e-06
1.79644e-06
1.79315e-06
1.79315e-06
1.79315e-06
1.79315e-06
1.79315e-06
1.79315e-06
1.79315e-06
1.79315e-06
1.79315e-06
1.79628e-06
1.79843e-06
1.79655e-06
1.79315e-06
1.79315e-06
1.79315e-06
1.79315e-06
1.79315e-06
1.79315e-06
1.79315e-06
1.79315e-06
1.79315e-06
1.79634e-06
1.79834e-06
1.79815e-06
1.79601e-06
1.79315e-06
1.79315e-06
1.79315e-06
1.79315e-06
1.79315e-06
1.79315e-06
1.79315e-06
1.79562e-06
1.79656e-06
1.79846e-06
1.79845e-06
1.79664e-06
1.7959e-06
1.79315e-06
1.79315e-06
1.79315e-06
1.79315e-06
1.79315e-06
1.79559e-06
1.79635e-06
1.79689e-06
1.79828e-06
1.79663e-06
1.79592e-06
1.79315e-06
1.79315e-06
1.79315e-06
1.79562e-06
1.79635e-06
1.79688e-06
1.79853e-06
1.79828e-06
1.79671e-06
1.7964e-06
1.79628e-06
1.79634e-06
1.79656e-06
1.79689e-06
1.79853e-06
1.79851e-06
1.79837e-06
1.79843e-06
1.79834e-06
1.79846e-06
1.78105e-06
1.77923e-06
1.77905e-06
1.77915e-06
1.78075e-06
1.78106e-06
1.78123e-06
1.77949e-06
1.77882e-06
1.77576e-06
1.77576e-06
1.77576e-06
1.77861e-06
1.77925e-06
1.78089e-06
1.77949e-06
1.77877e-06
1.77576e-06
1.77576e-06
1.77576e-06
1.77576e-06
1.77576e-06
1.7785e-06
1.77923e-06
1.78089e-06
1.78105e-06
1.77882e-06
1.77576e-06
1.77576e-06
1.77576e-06
1.77576e-06
1.77576e-06
1.77576e-06
1.77576e-06
1.77852e-06
1.77932e-06
1.78112e-06
1.77923e-06
1.77576e-06
1.77576e-06
1.77576e-06
1.77576e-06
1.77576e-06
1.77576e-06
1.77576e-06
1.77576e-06
1.77576e-06
1.77901e-06
1.78098e-06
1.77905e-06
1.77576e-06
1.77576e-06
1.77576e-06
1.77576e-06
1.77576e-06
1.77576e-06
1.77576e-06
1.77576e-06
1.77576e-06
1.77889e-06
1.78103e-06
1.77915e-06
1.77576e-06
1.77576e-06
1.77576e-06
1.77576e-06
1.77576e-06
1.77576e-06
1.77576e-06
1.77576e-06
1.77576e-06
1.77895e-06
1.78095e-06
1.78075e-06
1.77861e-06
1.77576e-06
1.77576e-06
1.77576e-06
1.77576e-06
1.77576e-06
1.77576e-06
1.77576e-06
1.77823e-06
1.77917e-06
1.78106e-06
1.78106e-06
1.77925e-06
1.7785e-06
1.77576e-06
1.77576e-06
1.77576e-06
1.77576e-06
1.77576e-06
1.7782e-06
1.77896e-06
1.7795e-06
1.78089e-06
1.77923e-06
1.77852e-06
1.77576e-06
1.77576e-06
1.77576e-06
1.77823e-06
1.77896e-06
1.77949e-06
1.78114e-06
1.78089e-06
1.77932e-06
1.77901e-06
1.77889e-06
1.77895e-06
1.77917e-06
1.7795e-06
1.78114e-06
1.78112e-06
1.78098e-06
1.78103e-06
1.78095e-06
1.78106e-06
1.76366e-06
1.76184e-06
1.76166e-06
1.76176e-06
1.76336e-06
1.76366e-06
1.76383e-06
1.7621e-06
1.76143e-06
1.75837e-06
1.75837e-06
1.75837e-06
1.76122e-06
1.76185e-06
1.7635e-06
1.7621e-06
1.76137e-06
1.75837e-06
1.75837e-06
1.75837e-06
1.75837e-06
1.75837e-06
1.76111e-06
1.76184e-06
1.7635e-06
1.76366e-06
1.76143e-06
1.75837e-06
1.75837e-06
1.75837e-06
1.75837e-06
1.75837e-06
1.75837e-06
1.75837e-06
1.76113e-06
1.76193e-06
1.76373e-06
1.76184e-06
1.75837e-06
1.75837e-06
1.75837e-06
1.75837e-06
1.75837e-06
1.75837e-06
1.75837e-06
1.75837e-06
1.75837e-06
1.76162e-06
1.76358e-06
1.76165e-06
1.75837e-06
1.75837e-06
1.75837e-06
1.75837e-06
1.75837e-06
1.75837e-06
1.75837e-06
1.75837e-06
1.75837e-06
1.7615e-06
1.76364e-06
1.76176e-06
1.75837e-06
1.75837e-06
1.75837e-06
1.75837e-06
1.75837e-06
1.75837e-06
1.75837e-06
1.75837e-06
1.75837e-06
1.76155e-06
1.76355e-06
1.76336e-06
1.76122e-06
1.75837e-06
1.75837e-06
1.75837e-06
1.75837e-06
1.75837e-06
1.75837e-06
1.75837e-06
1.76083e-06
1.76178e-06
1.76367e-06
1.76366e-06
1.76185e-06
1.76111e-06
1.75837e-06
1.75837e-06
1.75837e-06
1.75837e-06
1.75837e-06
1.7608e-06
1.76156e-06
1.7621e-06
1.7635e-06
1.76184e-06
1.76113e-06
1.75837e-06
1.75837e-06
1.75837e-06
1.76083e-06
1.76156e-06
1.7621e-06
1.76374e-06
1.7635e-06
1.76193e-06
1.76162e-06
1.7615e-06
1.76155e-06
1.76178e-06
1.7621e-06
1.76374e-06
1.76373e-06
1.76358e-06
1.76364e-06
1.76355e-06
1.76367e-06
1.74627e-06
1.74445e-06
1.74426e-06
1.74437e-06
1.74597e-06
1.74627e-06
1.74644e-06
1.74471e-06
1.74403e-06
1.74097e-06
1.74097e-06
1.74097e-06
1.74383e-06
1.74446e-06
1.7461e-06
1.7447e-06
1.74398e-06
1.74097e-06
1.74097e-06
1.74097e-06
1.74097e-06
1.74097e-06
1.74372e-06
1.74445e-06
1.7461e-06
1.74627e-06
1.74403e-06
1.74097e-06
1.74097e-06
1.74097e-06
1.74097e-06
1.74097e-06
1.74097e-06
1.74097e-06
1.74374e-06
1.74453e-06
1.74633e-06
1.74445e-06
1.74097e-06
1.74097e-06
1.74097e-06
1.74097e-06
1.74097e-06
1.74097e-06
1.74097e-06
1.74097e-06
1.74097e-06
1.74422e-06
1.74619e-06
1.74426e-06
1.74097e-06
1.74097e-06
1.74097e-06
1.74097e-06
1.74097e-06
1.74097e-06
1.74097e-06
1.74097e-06
1.74097e-06
1.7441e-06
1.74625e-06
1.74437e-06
1.74097e-06
1.74097e-06
1.74097e-06
1.74097e-06
1.74097e-06
1.74097e-06
1.74097e-06
1.74097e-06
1.74097e-06
1.74416e-06
1.74616e-06
1.74597e-06
1.74383e-06
1.74097e-06
1.74097e-06
1.74097e-06
1.74097e-06
1.74097e-06
1.74097e-06
1.74097e-06
1.74344e-06
1.74438e-06
1.74628e-06
1.74627e-06
1.74446e-06
1.74372e-06
1.74097e-06
1.74097e-06
1.74097e-06
1.74097e-06
1.74097e-06
1.74341e-06
1.74417e-06
1.74471e-06
1.7461e-06
1.74445e-06
1.74374e-06
1.74097e-06
1.74097e-06
1.74097e-06
1.74344e-06
1.74417e-06
1.7447e-06
1.74635e-06
1.7461e-06
1.74453e-06
1.74422e-06
1.7441e-06
1.74416e-06
1.74438e-06
1.74471e-06
1.74635e-06
1.74633e-06
1.74619e-06
1.74625e-06
1.74616e-06
1.74628e-06
1.72887e-06
1.72705e-06
1.72687e-06
1.72697e-06
1.72857e-06
1.72888e-06
1.72905e-06
1.72731e-06
1.72664e-06
1.72358e-06
1.72358e-06
1.72358e-06
1.72643e-06
1.72707e-06
1.72871e-06
1.72731e-06
1.72659e-06
1.72358e-06
1.72358e-06
1.72358e-06
1.72358e-06
1.72358e-06
1.72632e-06
1.72705e-06
1.72871e-06
1.72887e-06
1.72664e-06
1.72358e-06
1.72358e-06
1.72358e-06
1.72358e-06
1.72358e-06
1.72358e-06
1.72358e-06
1.72634e-06
1.72714e-06
1.72894e-06
1.72705e-06
1.72358e-06
1.72358e-06
1.72358e-06
1.72358e-06
1.72358e-06
1.72358e-06
1.72358e-06
1.72358e-06
1.72358e-06
1.72683e-06
1.7288e-06
1.72687e-06
1.72358e-06
1.72358e-06
1.72358e-06
1.72358e-06
1.72358e-06
1.72358e-06
1.72358e-06
1.72358e-06
1.72358e-06
1.72671e-06
1.72885e-06
1.72697e-06
1.72358e-06
1.72358e-06
1.72358e-06
1.72358e-06
1.72358e-06
1.72358e-06
1.72358e-06
1.72358e-06
1.72358e-06
1.72677e-06