/*--------------------------------*- C++ -*----------------------------------*\
| =========                 |                                                 |
| \\      /  F ield         | OpenFOAM: The Open Source CFD Toolbox           |
|  \\    /   O peration     | Version:  v2012                                 |
|   \\  /    A nd           | Website:  www.openfoam.com                      |
|    \\/     M anipulation  |                                                 |
\*---------------------------------------------------------------------------*/
FoamFile
{
    version     2.0;
    format      ascii;
    class       volScalarField;
    location    "39";
    object      p;
}
// * * * * * * * * * * * * * * * * * * * * * * * * * * * * * * * * * * * * * //

dimensions      [0 2 -2 0 0 0 0];


internalField   nonuniform List<scalar> 
292667
(
1.30584e-06
1.29591e-06
1.29508e-06
1.29516e-06
1.29631e-06
1.30678e-06
1.29612e-06
1.29319e-06
1.29149e-06
1.2908e-06
1.29089e-06
1.2918e-06
1.29376e-06
1.29697e-06
1.29612e-06
1.29233e-06
1.28999e-06
1.28871e-06
1.28817e-06
1.28824e-06
1.28894e-06
1.29044e-06
1.29309e-06
1.29723e-06
1.30584e-06
1.29319e-06
1.28999e-06
1.2881e-06
1.28705e-06
1.28659e-06
1.28666e-06
1.28724e-06
1.28847e-06
1.29062e-06
1.29422e-06
1.30565e-06
1.29591e-06
1.29149e-06
1.28871e-06
1.28705e-06
1.28611e-06
1.2857e-06
1.28575e-06
1.28628e-06
1.28738e-06
1.28927e-06
1.29243e-06
1.29988e-06
1.29508e-06
1.2908e-06
1.28817e-06
1.28659e-06
1.2857e-06
1.28531e-06
1.28536e-06
1.28587e-06
1.28691e-06
1.2887e-06
1.2917e-06
1.29807e-06
1.29516e-06
1.29089e-06
1.28824e-06
1.28666e-06
1.28575e-06
1.28536e-06
1.28542e-06
1.28593e-06
1.28698e-06
1.28878e-06
1.2918e-06
1.2984e-06
1.29631e-06
1.2918e-06
1.28894e-06
1.28724e-06
1.28628e-06
1.28587e-06
1.28593e-06
1.28647e-06
1.28759e-06
1.28953e-06
1.29278e-06
1.30022e-06
1.30678e-06
1.29376e-06
1.29044e-06
1.28847e-06
1.28738e-06
1.28691e-06
1.28698e-06
1.28759e-06
1.28887e-06
1.29112e-06
1.29485e-06
1.30562e-06
1.29697e-06
1.29309e-06
1.29062e-06
1.28927e-06
1.2887e-06
1.28878e-06
1.28953e-06
1.29112e-06
1.29393e-06
1.3008e-06
1.29723e-06
1.29422e-06
1.29243e-06
1.2917e-06
1.2918e-06
1.29278e-06
1.29485e-06
1.3008e-06
1.30565e-06
1.29988e-06
1.29807e-06
1.2984e-06
1.30022e-06
1.30562e-06
1.2773e-06
1.27628e-06
1.27625e-06
1.27628e-06
1.27723e-06
1.27716e-06
1.27737e-06
1.27656e-06
1.27614e-06
1.27455e-06
1.27452e-06
1.27455e-06
1.27629e-06
1.27656e-06
1.27735e-06
1.27656e-06
1.27615e-06
1.2746e-06
1.27452e-06
1.27458e-06
1.27452e-06
1.2746e-06
1.27626e-06
1.27653e-06
1.27732e-06
1.2773e-06
1.27614e-06
1.2746e-06
1.27453e-06
1.27457e-06
1.27456e-06
1.27457e-06
1.27453e-06
1.2746e-06
1.27624e-06
1.27655e-06
1.27741e-06
1.27628e-06
1.27455e-06
1.27452e-06
1.27457e-06
1.27453e-06
1.27453e-06
1.27453e-06
1.27457e-06
1.27452e-06
1.27455e-06
1.27667e-06
1.27751e-06
1.27625e-06
1.27452e-06
1.27458e-06
1.27456e-06
1.27453e-06
1.27453e-06
1.27453e-06
1.27456e-06
1.27458e-06
1.27452e-06
1.27667e-06
1.27736e-06
1.27628e-06
1.27455e-06
1.27452e-06
1.27457e-06
1.27453e-06
1.27453e-06
1.27453e-06
1.27457e-06
1.27452e-06
1.27455e-06
1.27668e-06
1.2774e-06
1.27723e-06
1.27629e-06
1.2746e-06
1.27453e-06
1.27457e-06
1.27456e-06
1.27457e-06
1.27453e-06
1.2746e-06
1.27639e-06
1.27659e-06
1.27748e-06
1.27716e-06
1.27656e-06
1.27626e-06
1.2746e-06
1.27452e-06
1.27458e-06
1.27452e-06
1.2746e-06
1.27635e-06
1.27655e-06
1.2766e-06
1.27735e-06
1.27653e-06
1.27624e-06
1.27455e-06
1.27452e-06
1.27455e-06
1.27639e-06
1.27655e-06
1.27667e-06
1.27747e-06
1.27732e-06
1.27655e-06
1.27667e-06
1.27667e-06
1.27668e-06
1.27659e-06
1.2766e-06
1.27747e-06
1.27741e-06
1.27751e-06
1.27736e-06
1.2774e-06
1.27748e-06
1.26642e-06
1.26542e-06
1.26535e-06
1.2654e-06
1.26638e-06
1.26644e-06
1.26646e-06
1.26558e-06
1.2651e-06
1.26353e-06
1.26353e-06
1.26353e-06
1.26525e-06
1.26559e-06
1.26641e-06
1.26558e-06
1.26509e-06
1.26359e-06
1.26358e-06
1.26362e-06
1.26358e-06
1.26359e-06
1.26525e-06
1.26558e-06
1.26641e-06
1.26642e-06
1.2651e-06
1.26359e-06
1.2636e-06
1.26366e-06
1.26366e-06
1.26366e-06
1.2636e-06
1.26359e-06
1.26525e-06
1.26564e-06
1.26648e-06
1.26542e-06
1.26353e-06
1.26358e-06
1.26366e-06
1.26367e-06
1.26369e-06
1.26367e-06
1.26366e-06
1.26358e-06
1.26353e-06
1.26566e-06
1.26658e-06
1.26535e-06
1.26353e-06
1.26362e-06
1.26366e-06
1.26369e-06
1.2637e-06
1.26369e-06
1.26366e-06
1.26362e-06
1.26353e-06
1.26566e-06
1.26658e-06
1.2654e-06
1.26353e-06
1.26358e-06
1.26366e-06
1.26367e-06
1.26369e-06
1.26367e-06
1.26366e-06
1.26358e-06
1.26353e-06
1.26566e-06
1.26658e-06
1.26638e-06
1.26525e-06
1.26359e-06
1.2636e-06
1.26366e-06
1.26366e-06
1.26366e-06
1.2636e-06
1.26359e-06
1.26542e-06
1.26566e-06
1.26659e-06
1.26644e-06
1.26559e-06
1.26525e-06
1.26359e-06
1.26358e-06
1.26362e-06
1.26358e-06
1.26359e-06
1.26539e-06
1.26559e-06
1.26571e-06
1.26641e-06
1.26558e-06
1.26525e-06
1.26353e-06
1.26353e-06
1.26353e-06
1.26542e-06
1.26559e-06
1.2657e-06
1.26658e-06
1.26641e-06
1.26564e-06
1.26566e-06
1.26566e-06
1.26566e-06
1.26566e-06
1.26571e-06
1.26658e-06
1.26648e-06
1.26658e-06
1.26658e-06
1.26658e-06
1.26659e-06
1.2556e-06
1.25459e-06
1.25451e-06
1.25456e-06
1.25555e-06
1.25563e-06
1.25564e-06
1.25473e-06
1.25423e-06
1.25265e-06
1.25265e-06
1.25265e-06
1.25437e-06
1.25473e-06
1.25559e-06
1.25473e-06
1.25421e-06
1.25268e-06
1.25269e-06
1.25271e-06
1.25269e-06
1.25268e-06
1.25436e-06
1.25473e-06
1.25559e-06
1.2556e-06
1.25423e-06
1.25268e-06
1.2527e-06
1.25274e-06
1.25274e-06
1.25274e-06
1.2527e-06
1.25268e-06
1.25437e-06
1.2548e-06
1.25566e-06
1.25459e-06
1.25265e-06
1.25269e-06
1.25274e-06
1.25276e-06
1.25278e-06
1.25276e-06
1.25274e-06
1.25269e-06
1.25265e-06
1.25482e-06
1.25576e-06
1.25451e-06
1.25265e-06
1.25271e-06
1.25274e-06
1.25278e-06
1.25278e-06
1.25278e-06
1.25274e-06
1.25271e-06
1.25265e-06
1.2548e-06
1.25576e-06
1.25456e-06
1.25265e-06
1.25269e-06
1.25274e-06
1.25276e-06
1.25278e-06
1.25276e-06
1.25274e-06
1.25269e-06
1.25265e-06
1.25481e-06
1.25576e-06
1.25555e-06
1.25437e-06
1.25268e-06
1.2527e-06
1.25274e-06
1.25274e-06
1.25274e-06
1.2527e-06
1.25268e-06
1.25456e-06
1.25483e-06
1.25577e-06
1.25563e-06
1.25473e-06
1.25436e-06
1.25268e-06
1.25269e-06
1.25271e-06
1.25269e-06
1.25268e-06
1.25453e-06
1.25474e-06
1.25489e-06
1.25559e-06
1.25473e-06
1.25437e-06
1.25265e-06
1.25265e-06
1.25265e-06
1.25456e-06
1.25474e-06
1.25487e-06
1.25576e-06
1.25559e-06
1.2548e-06
1.25482e-06
1.2548e-06
1.25481e-06
1.25483e-06
1.25489e-06
1.25576e-06
1.25566e-06
1.25576e-06
1.25576e-06
1.25576e-06
1.25577e-06
1.24477e-06
1.24376e-06
1.24368e-06
1.24373e-06
1.24473e-06
1.2448e-06
1.24482e-06
1.2439e-06
1.24339e-06
1.2418e-06
1.2418e-06
1.2418e-06
1.24353e-06
1.2439e-06
1.24476e-06
1.2439e-06
1.24336e-06
1.24181e-06
1.24182e-06
1.24183e-06
1.24182e-06
1.24181e-06
1.24351e-06
1.24389e-06
1.24477e-06
1.24477e-06
1.24339e-06
1.24181e-06
1.24183e-06
1.24185e-06
1.24186e-06
1.24185e-06
1.24183e-06
1.24181e-06
1.24353e-06
1.24397e-06
1.24483e-06
1.24376e-06
1.2418e-06
1.24182e-06
1.24185e-06
1.24187e-06
1.24188e-06
1.24187e-06
1.24185e-06
1.24182e-06
1.2418e-06
1.24398e-06
1.24494e-06
1.24368e-06
1.2418e-06
1.24183e-06
1.24186e-06
1.24188e-06
1.24189e-06
1.24188e-06
1.24186e-06
1.24183e-06
1.2418e-06
1.24396e-06
1.24493e-06
1.24373e-06
1.2418e-06
1.24182e-06
1.24185e-06
1.24187e-06
1.24188e-06
1.24187e-06
1.24185e-06
1.24182e-06
1.2418e-06
1.24397e-06
1.24493e-06
1.24473e-06
1.24353e-06
1.24181e-06
1.24183e-06
1.24185e-06
1.24186e-06
1.24185e-06
1.24183e-06
1.24181e-06
1.24372e-06
1.244e-06
1.24495e-06
1.2448e-06
1.2439e-06
1.24351e-06
1.24181e-06
1.24182e-06
1.24183e-06
1.24182e-06
1.24181e-06
1.24369e-06
1.24391e-06
1.24407e-06
1.24476e-06
1.24389e-06
1.24353e-06
1.2418e-06
1.2418e-06
1.2418e-06
1.24372e-06
1.24391e-06
1.24405e-06
1.24494e-06
1.24477e-06
1.24397e-06
1.24398e-06
1.24396e-06
1.24397e-06
1.244e-06
1.24407e-06
1.24494e-06
1.24483e-06
1.24494e-06
1.24493e-06
1.24493e-06
1.24495e-06
1.23395e-06
1.23293e-06
1.23285e-06
1.2329e-06
1.2339e-06
1.23398e-06
1.23399e-06
1.23307e-06
1.23256e-06
1.23096e-06
1.23096e-06
1.23096e-06
1.2327e-06
1.23306e-06
1.23394e-06
1.23307e-06
1.23253e-06
1.23097e-06
1.23097e-06
1.23098e-06
1.23097e-06
1.23097e-06
1.23267e-06
1.23306e-06
1.23394e-06
1.23395e-06
1.23256e-06
1.23097e-06
1.23098e-06
1.23099e-06
1.23099e-06
1.23099e-06
1.23098e-06
1.23097e-06
1.2327e-06
1.23314e-06
1.234e-06
1.23293e-06
1.23096e-06
1.23097e-06
1.23099e-06
1.231e-06
1.23101e-06
1.231e-06
1.23099e-06
1.23097e-06
1.23096e-06
1.23315e-06
1.23411e-06
1.23285e-06
1.23096e-06
1.23098e-06
1.23099e-06
1.23101e-06
1.23101e-06
1.23101e-06
1.23099e-06
1.23098e-06
1.23096e-06
1.23313e-06
1.2341e-06
1.2329e-06
1.23096e-06
1.23097e-06
1.23099e-06
1.231e-06
1.23101e-06
1.231e-06
1.23099e-06
1.23097e-06
1.23096e-06
1.23314e-06
1.2341e-06
1.2339e-06
1.2327e-06
1.23097e-06
1.23098e-06
1.23099e-06
1.23099e-06
1.23099e-06
1.23098e-06
1.23097e-06
1.23288e-06
1.23317e-06
1.23412e-06
1.23398e-06
1.23306e-06
1.23267e-06
1.23097e-06
1.23097e-06
1.23098e-06
1.23097e-06
1.23097e-06
1.23285e-06
1.23308e-06
1.23324e-06
1.23394e-06
1.23306e-06
1.2327e-06
1.23096e-06
1.23096e-06
1.23096e-06
1.23288e-06
1.23308e-06
1.23322e-06
1.23411e-06
1.23394e-06
1.23314e-06
1.23315e-06
1.23313e-06
1.23314e-06
1.23317e-06
1.23324e-06
1.23411e-06
1.234e-06
1.23411e-06
1.2341e-06
1.2341e-06
1.23412e-06
1.22312e-06
1.2221e-06
1.22202e-06
1.22207e-06
1.22307e-06
1.22315e-06
1.22316e-06
1.22224e-06
1.22172e-06
1.22013e-06
1.22013e-06
1.22013e-06
1.22187e-06
1.22223e-06
1.22311e-06
1.22224e-06
1.22169e-06
1.22013e-06
1.22013e-06
1.22014e-06
1.22013e-06
1.22013e-06
1.22184e-06
1.22223e-06
1.22311e-06
1.22312e-06
1.22172e-06
1.22013e-06
1.22014e-06
1.22014e-06
1.22014e-06
1.22014e-06
1.22014e-06
1.22013e-06
1.22186e-06
1.22232e-06
1.22318e-06
1.2221e-06
1.22013e-06
1.22013e-06
1.22014e-06
1.22015e-06
1.22015e-06
1.22015e-06
1.22014e-06
1.22013e-06
1.22013e-06
1.22232e-06
1.22328e-06
1.22202e-06
1.22013e-06
1.22014e-06
1.22014e-06
1.22015e-06
1.22015e-06
1.22015e-06
1.22014e-06
1.22014e-06
1.22013e-06
1.2223e-06
1.22327e-06
1.22207e-06
1.22013e-06
1.22013e-06
1.22014e-06
1.22015e-06
1.22015e-06
1.22015e-06
1.22014e-06
1.22013e-06
1.22013e-06
1.22231e-06
1.22327e-06
1.22307e-06
1.22187e-06
1.22013e-06
1.22014e-06
1.22014e-06
1.22014e-06
1.22014e-06
1.22014e-06
1.22013e-06
1.22205e-06
1.22234e-06
1.22329e-06
1.22315e-06
1.22223e-06
1.22184e-06
1.22013e-06
1.22013e-06
1.22014e-06
1.22013e-06
1.22013e-06
1.22202e-06
1.22225e-06
1.22241e-06
1.22311e-06
1.22223e-06
1.22186e-06
1.22013e-06
1.22013e-06
1.22013e-06
1.22205e-06
1.22225e-06
1.22239e-06
1.22328e-06
1.22311e-06
1.22232e-06
1.22232e-06
1.2223e-06
1.22231e-06
1.22234e-06
1.22241e-06
1.22328e-06
1.22318e-06
1.22328e-06
1.22327e-06
1.22327e-06
1.22329e-06
1.21229e-06
1.21127e-06
1.21119e-06
1.21124e-06
1.21224e-06
1.21232e-06
1.21233e-06
1.21141e-06
1.21089e-06
1.20929e-06
1.20929e-06
1.20929e-06
1.21103e-06
1.2114e-06
1.21228e-06
1.21141e-06
1.21086e-06
1.2093e-06
1.2093e-06
1.2093e-06
1.2093e-06
1.2093e-06
1.21101e-06
1.2114e-06
1.21228e-06
1.21229e-06
1.21089e-06
1.2093e-06
1.2093e-06
1.2093e-06
1.2093e-06
1.2093e-06
1.2093e-06
1.2093e-06
1.21103e-06
1.21149e-06
1.21235e-06
1.21127e-06
1.20929e-06
1.2093e-06
1.2093e-06
1.20931e-06
1.20931e-06
1.20931e-06
1.2093e-06
1.2093e-06
1.20929e-06
1.21149e-06
1.21245e-06
1.21119e-06
1.20929e-06
1.2093e-06
1.2093e-06
1.20931e-06
1.20931e-06
1.20931e-06
1.2093e-06
1.2093e-06
1.20929e-06
1.21147e-06
1.21244e-06
1.21124e-06
1.20929e-06
1.2093e-06
1.2093e-06
1.20931e-06
1.20931e-06
1.20931e-06
1.2093e-06
1.2093e-06
1.20929e-06
1.21148e-06
1.21244e-06
1.21224e-06
1.21103e-06
1.2093e-06
1.2093e-06
1.2093e-06
1.2093e-06
1.2093e-06
1.2093e-06
1.2093e-06
1.21122e-06
1.21151e-06
1.21246e-06
1.21232e-06
1.2114e-06
1.21101e-06
1.2093e-06
1.2093e-06
1.2093e-06
1.2093e-06
1.2093e-06
1.21119e-06
1.21142e-06
1.21158e-06
1.21228e-06
1.2114e-06
1.21103e-06
1.20929e-06
1.20929e-06
1.20929e-06
1.21122e-06
1.21142e-06
1.21156e-06
1.21245e-06
1.21228e-06
1.21149e-06
1.21149e-06
1.21147e-06
1.21148e-06
1.21151e-06
1.21158e-06
1.21245e-06
1.21235e-06
1.21245e-06
1.21244e-06
1.21244e-06
1.21246e-06
1.20146e-06
1.20044e-06
1.20036e-06
1.20041e-06
1.20141e-06
1.20149e-06
1.2015e-06
1.20058e-06
1.20006e-06
1.19846e-06
1.19846e-06
1.19846e-06
1.2002e-06
1.20057e-06
1.20145e-06
1.20058e-06
1.20003e-06
1.19846e-06
1.19847e-06
1.19847e-06
1.19847e-06
1.19846e-06
1.20018e-06
1.20057e-06
1.20145e-06
1.20146e-06
1.20006e-06
1.19846e-06
1.19847e-06
1.19847e-06
1.19847e-06
1.19847e-06
1.19847e-06
1.19846e-06
1.2002e-06
1.20066e-06
1.20152e-06
1.20044e-06
1.19846e-06
1.19847e-06
1.19847e-06
1.19847e-06
1.19847e-06
1.19847e-06
1.19847e-06
1.19847e-06
1.19846e-06
1.20066e-06
1.20162e-06
1.20036e-06
1.19846e-06
1.19847e-06
1.19847e-06
1.19847e-06
1.19847e-06
1.19847e-06
1.19847e-06
1.19847e-06
1.19846e-06
1.20064e-06
1.20161e-06
1.20041e-06
1.19846e-06
1.19847e-06
1.19847e-06
1.19847e-06
1.19847e-06
1.19847e-06
1.19847e-06
1.19847e-06
1.19846e-06
1.20065e-06
1.20161e-06
1.20141e-06
1.2002e-06
1.19846e-06
1.19847e-06
1.19847e-06
1.19847e-06
1.19847e-06
1.19847e-06
1.19846e-06
1.20039e-06
1.20068e-06
1.20163e-06
1.20149e-06
1.20057e-06
1.20018e-06
1.19846e-06
1.19847e-06
1.19847e-06
1.19847e-06
1.19846e-06
1.20036e-06
1.20059e-06
1.20076e-06
1.20145e-06
1.20057e-06
1.2002e-06
1.19846e-06
1.19846e-06
1.19846e-06
1.20039e-06
1.20059e-06
1.20073e-06
1.20162e-06
1.20145e-06
1.20066e-06
1.20066e-06
1.20064e-06
1.20065e-06
1.20068e-06
1.20076e-06
1.20162e-06
1.20152e-06
1.20162e-06
1.20161e-06
1.20161e-06
1.20163e-06
1.19063e-06
1.18961e-06
1.18953e-06
1.18958e-06
1.19058e-06
1.19066e-06
1.19067e-06
1.18975e-06
1.18923e-06
1.18763e-06
1.18763e-06
1.18763e-06
1.18937e-06
1.18974e-06
1.19062e-06
1.18975e-06
1.1892e-06
1.18763e-06
1.18763e-06
1.18763e-06
1.18763e-06
1.18763e-06
1.18935e-06
1.18974e-06
1.19062e-06
1.19063e-06
1.18923e-06
1.18763e-06
1.18763e-06
1.18763e-06
1.18764e-06
1.18763e-06
1.18763e-06
1.18763e-06
1.18937e-06
1.18983e-06
1.19069e-06
1.18961e-06
1.18763e-06
1.18763e-06
1.18763e-06
1.18764e-06
1.18764e-06
1.18764e-06
1.18763e-06
1.18763e-06
1.18763e-06
1.18983e-06
1.19079e-06
1.18953e-06
1.18763e-06
1.18763e-06
1.18764e-06
1.18764e-06
1.18764e-06
1.18764e-06
1.18764e-06
1.18763e-06
1.18763e-06
1.18981e-06
1.19078e-06
1.18958e-06
1.18763e-06
1.18763e-06
1.18763e-06
1.18764e-06
1.18764e-06
1.18764e-06
1.18763e-06
1.18763e-06
1.18763e-06
1.18982e-06
1.19078e-06
1.19058e-06
1.18937e-06
1.18763e-06
1.18763e-06
1.18763e-06
1.18764e-06
1.18763e-06
1.18763e-06
1.18763e-06
1.18956e-06
1.18985e-06
1.1908e-06
1.19066e-06
1.18974e-06
1.18935e-06
1.18763e-06
1.18763e-06
1.18763e-06
1.18763e-06
1.18763e-06
1.18953e-06
1.18976e-06
1.18992e-06
1.19062e-06
1.18974e-06
1.18937e-06
1.18763e-06
1.18763e-06
1.18763e-06
1.18956e-06
1.18976e-06
1.1899e-06
1.19079e-06
1.19062e-06
1.18983e-06
1.18983e-06
1.18981e-06
1.18982e-06
1.18985e-06
1.18992e-06
1.19079e-06
1.19069e-06
1.19079e-06
1.19078e-06
1.19078e-06
1.1908e-06
1.1798e-06
1.17878e-06
1.1787e-06
1.17875e-06
1.17975e-06
1.17983e-06
1.17984e-06
1.17892e-06
1.1784e-06
1.1768e-06
1.1768e-06
1.1768e-06
1.17854e-06
1.17891e-06
1.17979e-06
1.17892e-06
1.17837e-06
1.1768e-06
1.1768e-06
1.1768e-06
1.1768e-06
1.1768e-06
1.17852e-06
1.17891e-06
1.17979e-06
1.1798e-06
1.1784e-06
1.1768e-06
1.1768e-06
1.1768e-06
1.1768e-06
1.1768e-06
1.1768e-06
1.1768e-06
1.17854e-06
1.17899e-06
1.17986e-06
1.17878e-06
1.1768e-06
1.1768e-06
1.1768e-06
1.1768e-06
1.1768e-06
1.1768e-06
1.1768e-06
1.1768e-06
1.1768e-06
1.179e-06
1.17996e-06
1.1787e-06
1.1768e-06
1.1768e-06
1.1768e-06
1.1768e-06
1.1768e-06
1.1768e-06
1.1768e-06
1.1768e-06
1.1768e-06
1.17898e-06
1.17995e-06
1.17875e-06
1.1768e-06
1.1768e-06
1.1768e-06
1.1768e-06
1.1768e-06
1.1768e-06
1.1768e-06
1.1768e-06
1.1768e-06
1.17899e-06
1.17995e-06
1.17975e-06
1.17854e-06
1.1768e-06
1.1768e-06
1.1768e-06
1.1768e-06
1.1768e-06
1.1768e-06
1.1768e-06
1.17873e-06
1.17902e-06
1.17997e-06
1.17983e-06
1.17891e-06
1.17852e-06
1.1768e-06
1.1768e-06
1.1768e-06
1.1768e-06
1.1768e-06
1.17869e-06
1.17893e-06
1.17909e-06
1.17979e-06
1.17891e-06
1.17854e-06
1.1768e-06
1.1768e-06
1.1768e-06
1.17873e-06
1.17893e-06
1.17907e-06
1.17996e-06
1.17979e-06
1.17899e-06
1.179e-06
1.17898e-06
1.17899e-06
1.17902e-06
1.17909e-06
1.17996e-06
1.17986e-06
1.17996e-06
1.17995e-06
1.17995e-06
1.17997e-06
1.16897e-06
1.16795e-06
1.16787e-06
1.16792e-06
1.16892e-06
1.169e-06
1.16901e-06
1.16809e-06
1.16757e-06
1.16597e-06
1.16597e-06
1.16597e-06
1.16771e-06
1.16808e-06
1.16896e-06
1.16809e-06
1.16754e-06
1.16597e-06
1.16597e-06
1.16597e-06
1.16597e-06
1.16597e-06
1.16769e-06
1.16808e-06
1.16896e-06
1.16897e-06
1.16757e-06
1.16597e-06
1.16597e-06
1.16597e-06
1.16597e-06
1.16597e-06
1.16597e-06
1.16597e-06
1.16771e-06
1.16816e-06
1.16903e-06
1.16795e-06
1.16597e-06
1.16597e-06
1.16597e-06
1.16597e-06
1.16597e-06
1.16597e-06
1.16597e-06
1.16597e-06
1.16597e-06
1.16817e-06
1.16913e-06
1.16787e-06
1.16597e-06
1.16597e-06
1.16597e-06
1.16597e-06
1.16597e-06
1.16597e-06
1.16597e-06
1.16597e-06
1.16597e-06
1.16815e-06
1.16912e-06
1.16792e-06
1.16597e-06
1.16597e-06
1.16597e-06
1.16597e-06
1.16597e-06
1.16597e-06
1.16597e-06
1.16597e-06
1.16597e-06
1.16816e-06
1.16912e-06
1.16892e-06
1.16771e-06
1.16597e-06
1.16597e-06
1.16597e-06
1.16597e-06
1.16597e-06
1.16597e-06
1.16597e-06
1.1679e-06
1.16819e-06
1.16914e-06
1.169e-06
1.16808e-06
1.16769e-06
1.16597e-06
1.16597e-06
1.16597e-06
1.16597e-06
1.16597e-06
1.16786e-06
1.1681e-06
1.16826e-06
1.16896e-06
1.16808e-06
1.16771e-06
1.16597e-06
1.16597e-06
1.16597e-06
1.1679e-06
1.1681e-06
1.16824e-06
1.16913e-06
1.16896e-06
1.16816e-06
1.16817e-06
1.16815e-06
1.16816e-06
1.16819e-06
1.16826e-06
1.16913e-06
1.16903e-06
1.16913e-06
1.16912e-06
1.16912e-06
1.16914e-06
1.15814e-06
1.15712e-06
1.15704e-06
1.15709e-06
1.15809e-06
1.15817e-06
1.15818e-06
1.15726e-06
1.15674e-06
1.15514e-06
1.15514e-06
1.15514e-06
1.15688e-06
1.15725e-06
1.15813e-06
1.15726e-06
1.15671e-06
1.15514e-06
1.15514e-06
1.15514e-06
1.15514e-06
1.15514e-06
1.15686e-06
1.15725e-06
1.15813e-06
1.15814e-06
1.15674e-06
1.15514e-06
1.15514e-06
1.15514e-06
1.15514e-06
1.15514e-06
1.15514e-06
1.15514e-06
1.15688e-06
1.15733e-06
1.1582e-06
1.15712e-06
1.15514e-06
1.15514e-06
1.15514e-06
1.15514e-06
1.15514e-06
1.15514e-06
1.15514e-06
1.15514e-06
1.15514e-06
1.15734e-06
1.1583e-06
1.15704e-06
1.15514e-06
1.15514e-06
1.15514e-06
1.15514e-06
1.15514e-06
1.15514e-06
1.15514e-06
1.15514e-06
1.15514e-06
1.15732e-06
1.15829e-06
1.15709e-06
1.15514e-06
1.15514e-06
1.15514e-06
1.15514e-06
1.15514e-06
1.15514e-06
1.15514e-06
1.15514e-06
1.15514e-06
1.15733e-06
1.15829e-06
1.15809e-06
1.15688e-06
1.15514e-06
1.15514e-06
1.15514e-06
1.15514e-06
1.15514e-06
1.15514e-06
1.15514e-06
1.15707e-06
1.15736e-06
1.15831e-06
1.15817e-06
1.15725e-06
1.15686e-06
1.15514e-06
1.15514e-06
1.15514e-06
1.15514e-06
1.15514e-06
1.15703e-06
1.15727e-06
1.15743e-06
1.15813e-06
1.15725e-06
1.15688e-06
1.15514e-06
1.15514e-06
1.15514e-06
1.15707e-06
1.15727e-06
1.15741e-06
1.1583e-06
1.15813e-06
1.15733e-06
1.15734e-06
1.15732e-06
1.15733e-06
1.15736e-06
1.15743e-06
1.1583e-06
1.1582e-06
1.1583e-06
1.15829e-06
1.15829e-06
1.15831e-06
1.14731e-06
1.14629e-06
1.14621e-06
1.14626e-06
1.14726e-06
1.14734e-06
1.14735e-06
1.14643e-06
1.14591e-06
1.14431e-06
1.14431e-06
1.14431e-06
1.14605e-06
1.14642e-06
1.1473e-06
1.14643e-06
1.14588e-06
1.14431e-06
1.14431e-06
1.14431e-06
1.14431e-06
1.14431e-06
1.14603e-06
1.14642e-06
1.1473e-06
1.14731e-06
1.14591e-06
1.14431e-06
1.14431e-06
1.14431e-06
1.14431e-06
1.14431e-06
1.14431e-06
1.14431e-06
1.14605e-06
1.1465e-06
1.14737e-06
1.14629e-06
1.14431e-06
1.14431e-06
1.14431e-06
1.14431e-06
1.14431e-06
1.14431e-06
1.14431e-06
1.14431e-06
1.14431e-06
1.14651e-06
1.14747e-06
1.14621e-06
1.14431e-06
1.14431e-06
1.14431e-06
1.14431e-06
1.14431e-06
1.14431e-06
1.14431e-06
1.14431e-06
1.14431e-06
1.14649e-06
1.14746e-06
1.14626e-06
1.14431e-06
1.14431e-06
1.14431e-06
1.14431e-06
1.14431e-06
1.14431e-06
1.14431e-06
1.14431e-06
1.14431e-06
1.1465e-06
1.14746e-06
1.14726e-06
1.14605e-06
1.14431e-06
1.14431e-06
1.14431e-06
1.14431e-06
1.14431e-06
1.14431e-06
1.14431e-06
1.14624e-06
1.14653e-06
1.14748e-06
1.14734e-06
1.14642e-06
1.14603e-06
1.14431e-06
1.14431e-06
1.14431e-06
1.14431e-06
1.14431e-06
1.1462e-06
1.14644e-06
1.1466e-06
1.1473e-06
1.14642e-06
1.14605e-06
1.14431e-06
1.14431e-06
1.14431e-06
1.14624e-06
1.14644e-06
1.14658e-06
1.14747e-06
1.1473e-06
1.1465e-06
1.14651e-06
1.14649e-06
1.1465e-06
1.14653e-06
1.1466e-06
1.14747e-06
1.14737e-06
1.14747e-06
1.14746e-06
1.14746e-06
1.14748e-06
1.13648e-06
1.13545e-06
1.13538e-06
1.13543e-06
1.13643e-06
1.13651e-06
1.13652e-06
1.1356e-06
1.13508e-06
1.13348e-06
1.13348e-06
1.13348e-06
1.13522e-06
1.13559e-06
1.13647e-06
1.1356e-06
1.13505e-06
1.13348e-06
1.13348e-06
1.13348e-06
1.13348e-06
1.13348e-06
1.1352e-06
1.13559e-06
1.13647e-06
1.13648e-06
1.13508e-06
1.13348e-06
1.13348e-06
1.13348e-06
1.13348e-06
1.13348e-06
1.13348e-06
1.13348e-06
1.13522e-06
1.13567e-06
1.13653e-06
1.13545e-06
1.13348e-06
1.13348e-06
1.13348e-06
1.13348e-06
1.13348e-06
1.13348e-06
1.13348e-06
1.13348e-06
1.13348e-06
1.13568e-06
1.13664e-06
1.13538e-06
1.13348e-06
1.13348e-06
1.13348e-06
1.13348e-06
1.13348e-06
1.13348e-06
1.13348e-06
1.13348e-06
1.13348e-06
1.13566e-06
1.13663e-06
1.13543e-06
1.13348e-06
1.13348e-06
1.13348e-06
1.13348e-06
1.13348e-06
1.13348e-06
1.13348e-06
1.13348e-06
1.13348e-06
1.13567e-06
1.13663e-06
1.13643e-06
1.13522e-06
1.13348e-06
1.13348e-06
1.13348e-06
1.13348e-06
1.13348e-06
1.13348e-06
1.13348e-06
1.13541e-06
1.1357e-06
1.13665e-06
1.13651e-06
1.13559e-06
1.1352e-06
1.13348e-06
1.13348e-06
1.13348e-06
1.13348e-06
1.13348e-06
1.13537e-06
1.13561e-06
1.13577e-06
1.13647e-06
1.13559e-06
1.13522e-06
1.13348e-06
1.13348e-06
1.13348e-06
1.13541e-06
1.13561e-06
1.13575e-06
1.13664e-06
1.13647e-06
1.13567e-06
1.13568e-06
1.13566e-06
1.13567e-06
1.1357e-06
1.13577e-06
1.13664e-06
1.13653e-06
1.13664e-06
1.13663e-06
1.13663e-06
1.13665e-06
1.12565e-06
1.12462e-06
1.12455e-06
1.1246e-06
1.1256e-06
1.12567e-06
1.12569e-06
1.12477e-06
1.12425e-06
1.12265e-06
1.12265e-06
1.12265e-06
1.12439e-06
1.12476e-06
1.12564e-06
1.12477e-06
1.12422e-06
1.12265e-06
1.12265e-06
1.12265e-06
1.12265e-06
1.12265e-06
1.12437e-06
1.12476e-06
1.12564e-06
1.12565e-06
1.12425e-06
1.12265e-06
1.12265e-06
1.12265e-06
1.12265e-06
1.12265e-06
1.12265e-06
1.12265e-06
1.12439e-06
1.12484e-06
1.1257e-06
1.12462e-06
1.12265e-06
1.12265e-06
1.12265e-06
1.12265e-06
1.12265e-06
1.12265e-06
1.12265e-06
1.12265e-06
1.12265e-06
1.12485e-06
1.12581e-06
1.12455e-06
1.12265e-06
1.12265e-06
1.12265e-06
1.12265e-06
1.12265e-06
1.12265e-06
1.12265e-06
1.12265e-06
1.12265e-06
1.12483e-06
1.1258e-06
1.1246e-06
1.12265e-06
1.12265e-06
1.12265e-06
1.12265e-06
1.12265e-06
1.12265e-06
1.12265e-06
1.12265e-06
1.12265e-06
1.12484e-06
1.1258e-06
1.1256e-06
1.12439e-06
1.12265e-06
1.12265e-06
1.12265e-06
1.12265e-06
1.12265e-06
1.12265e-06
1.12265e-06
1.12458e-06
1.12487e-06
1.12582e-06
1.12567e-06
1.12476e-06
1.12437e-06
1.12265e-06
1.12265e-06
1.12265e-06
1.12265e-06
1.12265e-06
1.12454e-06
1.12478e-06
1.12494e-06
1.12564e-06
1.12476e-06
1.12439e-06
1.12265e-06
1.12265e-06
1.12265e-06
1.12458e-06
1.12478e-06
1.12492e-06
1.12581e-06
1.12564e-06
1.12484e-06
1.12485e-06
1.12483e-06
1.12484e-06
1.12487e-06
1.12494e-06
1.12581e-06
1.1257e-06
1.12581e-06
1.1258e-06
1.1258e-06
1.12582e-06
1.11482e-06
1.11379e-06
1.11372e-06
1.11377e-06
1.11477e-06
1.11484e-06
1.11486e-06
1.11394e-06
1.11342e-06
1.11182e-06
1.11182e-06
1.11182e-06
1.11356e-06
1.11393e-06
1.1148e-06
1.11394e-06
1.11339e-06
1.11182e-06
1.11182e-06
1.11182e-06
1.11182e-06
1.11182e-06
1.11354e-06
1.11393e-06
1.11481e-06
1.11482e-06
1.11342e-06
1.11182e-06
1.11182e-06
1.11182e-06
1.11182e-06
1.11182e-06
1.11182e-06
1.11182e-06
1.11356e-06
1.11401e-06
1.11487e-06
1.11379e-06
1.11182e-06
1.11182e-06
1.11182e-06
1.11182e-06
1.11182e-06
1.11182e-06
1.11182e-06
1.11182e-06
1.11182e-06
1.11402e-06
1.11498e-06
1.11372e-06
1.11182e-06
1.11182e-06
1.11182e-06
1.11182e-06
1.11182e-06
1.11182e-06
1.11182e-06
1.11182e-06
1.11182e-06
1.114e-06
1.11497e-06
1.11377e-06
1.11182e-06
1.11182e-06
1.11182e-06
1.11182e-06
1.11182e-06
1.11182e-06
1.11182e-06
1.11182e-06
1.11182e-06
1.11401e-06
1.11497e-06
1.11477e-06
1.11356e-06
1.11182e-06
1.11182e-06
1.11182e-06
1.11182e-06
1.11182e-06
1.11182e-06
1.11182e-06
1.11375e-06
1.11404e-06
1.11499e-06
1.11484e-06
1.11393e-06
1.11354e-06
1.11182e-06
1.11182e-06
1.11182e-06
1.11182e-06
1.11182e-06
1.11371e-06
1.11395e-06
1.11411e-06
1.1148e-06
1.11393e-06
1.11356e-06
1.11182e-06
1.11182e-06
1.11182e-06
1.11375e-06
1.11395e-06
1.11409e-06
1.11498e-06
1.11481e-06
1.11401e-06
1.11402e-06
1.114e-06
1.11401e-06
1.11404e-06
1.11411e-06
1.11498e-06
1.11487e-06
1.11498e-06
1.11497e-06
1.11497e-06
1.11499e-06
1.10399e-06
1.10296e-06
1.10289e-06
1.10294e-06
1.10394e-06
1.10401e-06
1.10403e-06
1.10311e-06
1.10259e-06
1.10099e-06
1.10099e-06
1.10099e-06
1.10273e-06
1.1031e-06
1.10397e-06
1.10311e-06
1.10256e-06
1.10099e-06
1.10099e-06
1.10099e-06
1.10099e-06
1.10099e-06
1.10271e-06
1.1031e-06
1.10398e-06
1.10399e-06
1.10259e-06
1.10099e-06
1.10099e-06
1.10099e-06
1.10099e-06
1.10099e-06
1.10099e-06
1.10099e-06
1.10273e-06
1.10318e-06
1.10404e-06
1.10296e-06
1.10099e-06
1.10099e-06
1.10099e-06
1.10099e-06
1.10099e-06
1.10099e-06
1.10099e-06
1.10099e-06
1.10099e-06
1.10319e-06
1.10415e-06
1.10289e-06
1.10099e-06
1.10099e-06
1.10099e-06
1.10099e-06
1.10099e-06
1.10099e-06
1.10099e-06
1.10099e-06
1.10099e-06
1.10317e-06
1.10414e-06
1.10294e-06
1.10099e-06
1.10099e-06
1.10099e-06
1.10099e-06
1.10099e-06
1.10099e-06
1.10099e-06
1.10099e-06
1.10099e-06
1.10318e-06
1.10414e-06
1.10394e-06
1.10273e-06
1.10099e-06
1.10099e-06
1.10099e-06
1.10099e-06
1.10099e-06
1.10099e-06
1.10099e-06
1.10292e-06
1.10321e-06
1.10416e-06
1.10401e-06
1.1031e-06
1.10271e-06
1.10099e-06
1.10099e-06
1.10099e-06
1.10099e-06
1.10099e-06
1.10288e-06
1.10312e-06
1.10328e-06
1.10397e-06
1.1031e-06
1.10273e-06
1.10099e-06
1.10099e-06
1.10099e-06
1.10292e-06
1.10312e-06
1.10326e-06
1.10415e-06
1.10398e-06
1.10318e-06
1.10319e-06
1.10317e-06
1.10318e-06
1.10321e-06
1.10328e-06
1.10415e-06
1.10404e-06
1.10415e-06
1.10414e-06
1.10414e-06
1.10416e-06
1.09315e-06
1.09213e-06
1.09206e-06
1.09211e-06
1.09311e-06
1.09318e-06
1.0932e-06
1.09228e-06
1.09176e-06
1.09016e-06
1.09016e-06
1.09016e-06
1.0919e-06
1.09227e-06
1.09314e-06
1.09228e-06
1.09173e-06
1.09016e-06
1.09016e-06
1.09016e-06
1.09016e-06
1.09016e-06
1.09188e-06
1.09227e-06
1.09315e-06
1.09315e-06
1.09176e-06
1.09016e-06
1.09016e-06
1.09016e-06
1.09016e-06
1.09016e-06
1.09016e-06
1.09016e-06
1.0919e-06
1.09235e-06
1.09321e-06
1.09213e-06
1.09016e-06
1.09016e-06
1.09016e-06
1.09016e-06
1.09016e-06
1.09016e-06
1.09016e-06
1.09016e-06
1.09016e-06
1.09236e-06
1.09332e-06
1.09206e-06
1.09016e-06
1.09016e-06
1.09016e-06
1.09016e-06
1.09016e-06
1.09016e-06
1.09016e-06
1.09016e-06
1.09016e-06
1.09234e-06
1.09331e-06
1.09211e-06
1.09016e-06
1.09016e-06
1.09016e-06
1.09016e-06
1.09016e-06
1.09016e-06
1.09016e-06
1.09016e-06
1.09016e-06
1.09235e-06
1.09331e-06
1.09311e-06
1.0919e-06
1.09016e-06
1.09016e-06
1.09016e-06
1.09016e-06
1.09016e-06
1.09016e-06
1.09016e-06
1.09209e-06
1.09238e-06
1.09333e-06
1.09318e-06
1.09227e-06
1.09188e-06
1.09016e-06
1.09016e-06
1.09016e-06
1.09016e-06
1.09016e-06
1.09205e-06
1.09229e-06
1.09245e-06
1.09314e-06
1.09227e-06
1.0919e-06
1.09016e-06
1.09016e-06
1.09016e-06
1.09209e-06
1.09229e-06
1.09243e-06
1.09332e-06
1.09315e-06
1.09235e-06
1.09236e-06
1.09234e-06
1.09235e-06
1.09238e-06
1.09245e-06
1.09332e-06
1.09321e-06
1.09332e-06
1.09331e-06
1.09331e-06
1.09333e-06
1.08232e-06
1.0813e-06
1.08123e-06
1.08128e-06
1.08228e-06
1.08235e-06
1.08237e-06
1.08145e-06
1.08093e-06
1.07933e-06
1.07933e-06
1.07933e-06
1.08107e-06
1.08144e-06
1.08231e-06
1.08145e-06
1.0809e-06
1.07933e-06
1.07933e-06
1.07933e-06
1.07933e-06
1.07933e-06
1.08104e-06
1.08144e-06
1.08232e-06
1.08232e-06
1.08093e-06
1.07933e-06
1.07933e-06
1.07933e-06
1.07933e-06
1.07933e-06
1.07933e-06
1.07933e-06
1.08107e-06
1.08152e-06
1.08238e-06
1.0813e-06
1.07933e-06
1.07933e-06
1.07933e-06
1.07933e-06
1.07933e-06
1.07933e-06
1.07933e-06
1.07933e-06
1.07933e-06
1.08153e-06
1.08249e-06
1.08123e-06
1.07933e-06
1.07933e-06
1.07933e-06
1.07933e-06
1.07933e-06
1.07933e-06
1.07933e-06
1.07933e-06
1.07933e-06
1.08151e-06
1.08248e-06
1.08128e-06
1.07933e-06
1.07933e-06
1.07933e-06
1.07933e-06
1.07933e-06
1.07933e-06
1.07933e-06
1.07933e-06
1.07933e-06
1.08152e-06
1.08248e-06
1.08228e-06
1.08107e-06
1.07933e-06
1.07933e-06
1.07933e-06
1.07933e-06
1.07933e-06
1.07933e-06
1.07933e-06
1.08126e-06
1.08155e-06
1.0825e-06
1.08235e-06
1.08144e-06
1.08104e-06
1.07933e-06
1.07933e-06
1.07933e-06
1.07933e-06
1.07933e-06
1.08122e-06
1.08146e-06
1.08162e-06
1.08231e-06
1.08144e-06
1.08107e-06
1.07933e-06
1.07933e-06
1.07933e-06
1.08126e-06
1.08146e-06
1.0816e-06
1.08249e-06
1.08232e-06
1.08152e-06
1.08153e-06
1.08151e-06
1.08152e-06
1.08155e-06
1.08162e-06
1.08249e-06
1.08238e-06
1.08249e-06
1.08248e-06
1.08248e-06
1.0825e-06
1.07149e-06
1.07047e-06
1.0704e-06
1.07045e-06
1.07145e-06
1.07152e-06
1.07154e-06
1.07062e-06
1.0701e-06
1.0685e-06
1.0685e-06
1.0685e-06
1.07024e-06
1.07061e-06
1.07148e-06
1.07062e-06
1.07007e-06
1.0685e-06
1.0685e-06
1.0685e-06
1.0685e-06
1.0685e-06
1.07021e-06
1.07061e-06
1.07149e-06
1.07149e-06
1.0701e-06
1.0685e-06
1.0685e-06
1.0685e-06
1.0685e-06
1.0685e-06
1.0685e-06
1.0685e-06
1.07024e-06
1.07069e-06
1.07155e-06
1.07047e-06
1.0685e-06
1.0685e-06
1.0685e-06
1.0685e-06
1.0685e-06
1.0685e-06
1.0685e-06
1.0685e-06
1.0685e-06
1.0707e-06
1.07166e-06
1.0704e-06
1.0685e-06
1.0685e-06
1.0685e-06
1.0685e-06
1.0685e-06
1.0685e-06
1.0685e-06
1.0685e-06
1.0685e-06
1.07068e-06
1.07165e-06
1.07045e-06
1.0685e-06
1.0685e-06
1.0685e-06
1.0685e-06
1.0685e-06
1.0685e-06
1.0685e-06
1.0685e-06
1.0685e-06
1.07069e-06
1.07165e-06
1.07145e-06