/*--------------------------------*- C++ -*----------------------------------*\
| =========                 |                                                 |
| \\      /  F ield         | OpenFOAM: The Open Source CFD Toolbox           |
|  \\    /   O peration     | Version:  v2012                                 |
|   \\  /    A nd           | Website:  www.openfoam.com                      |
|    \\/     M anipulation  |                                                 |
\*---------------------------------------------------------------------------*/
FoamFile
{
    version     2.0;
    format      ascii;
    class       volScalarField;
    location    "37";
    object      p;
}
// * * * * * * * * * * * * * * * * * * * * * * * * * * * * * * * * * * * * * //

dimensions      [0 2 -2 0 0 0 0];


internalField   nonuniform List<scalar> 
292667
(
1.32974e-06
1.31968e-06
1.31884e-06
1.31892e-06
1.32009e-06
1.33068e-06
1.31989e-06
1.3169e-06
1.31517e-06
1.31446e-06
1.31455e-06
1.31548e-06
1.31749e-06
1.32077e-06
1.31989e-06
1.31602e-06
1.31364e-06
1.31233e-06
1.31178e-06
1.31185e-06
1.31257e-06
1.31409e-06
1.3168e-06
1.32103e-06
1.32974e-06
1.3169e-06
1.31364e-06
1.31172e-06
1.31064e-06
1.31018e-06
1.31024e-06
1.31084e-06
1.31209e-06
1.31428e-06
1.31796e-06
1.32959e-06
1.31968e-06
1.31517e-06
1.31233e-06
1.31064e-06
1.30968e-06
1.30927e-06
1.30932e-06
1.30986e-06
1.31098e-06
1.3129e-06
1.31613e-06
1.32373e-06
1.31884e-06
1.31446e-06
1.31178e-06
1.31018e-06
1.30927e-06
1.30887e-06
1.30892e-06
1.30944e-06
1.3105e-06
1.31232e-06
1.31538e-06
1.32188e-06
1.31892e-06
1.31455e-06
1.31185e-06
1.31024e-06
1.30932e-06
1.30892e-06
1.30898e-06
1.3095e-06
1.31057e-06
1.31241e-06
1.31549e-06
1.32222e-06
1.32009e-06
1.31548e-06
1.31257e-06
1.31084e-06
1.30986e-06
1.30944e-06
1.3095e-06
1.31005e-06
1.31119e-06
1.31317e-06
1.31648e-06
1.32408e-06
1.33068e-06
1.31749e-06
1.31409e-06
1.31209e-06
1.31098e-06
1.3105e-06
1.31057e-06
1.31119e-06
1.3125e-06
1.31479e-06
1.3186e-06
1.32957e-06
1.32077e-06
1.3168e-06
1.31428e-06
1.3129e-06
1.31232e-06
1.31241e-06
1.31317e-06
1.31479e-06
1.31766e-06
1.32464e-06
1.32103e-06
1.31796e-06
1.31613e-06
1.31538e-06
1.31549e-06
1.31648e-06
1.3186e-06
1.32464e-06
1.32959e-06
1.32373e-06
1.32188e-06
1.32222e-06
1.32408e-06
1.32957e-06
1.30074e-06
1.29968e-06
1.29965e-06
1.29968e-06
1.30065e-06
1.30059e-06
1.30081e-06
1.29997e-06
1.29954e-06
1.29791e-06
1.29788e-06
1.29791e-06
1.29969e-06
1.29996e-06
1.30078e-06
1.29997e-06
1.29956e-06
1.29796e-06
1.29788e-06
1.29793e-06
1.29788e-06
1.29796e-06
1.29966e-06
1.29994e-06
1.30075e-06
1.30074e-06
1.29954e-06
1.29796e-06
1.29788e-06
1.29793e-06
1.29792e-06
1.29793e-06
1.29788e-06
1.29796e-06
1.29964e-06
1.29995e-06
1.30085e-06
1.29968e-06
1.29791e-06
1.29788e-06
1.29793e-06
1.29789e-06
1.29789e-06
1.29789e-06
1.29793e-06
1.29788e-06
1.29791e-06
1.30006e-06
1.30094e-06
1.29965e-06
1.29788e-06
1.29793e-06
1.29792e-06
1.29789e-06
1.29789e-06
1.29789e-06
1.29792e-06
1.29793e-06
1.29788e-06
1.30006e-06
1.30078e-06
1.29968e-06
1.29791e-06
1.29788e-06
1.29793e-06
1.29789e-06
1.29789e-06
1.29789e-06
1.29793e-06
1.29788e-06
1.29791e-06
1.30007e-06
1.30082e-06
1.30065e-06
1.29969e-06
1.29796e-06
1.29789e-06
1.29793e-06
1.29792e-06
1.29793e-06
1.29788e-06
1.29796e-06
1.29978e-06
1.29999e-06
1.30091e-06
1.30059e-06
1.29996e-06
1.29966e-06
1.29796e-06
1.29788e-06
1.29793e-06
1.29788e-06
1.29796e-06
1.29974e-06
1.29995e-06
1.30001e-06
1.30078e-06
1.29994e-06
1.29964e-06
1.29791e-06
1.29788e-06
1.29791e-06
1.29978e-06
1.29995e-06
1.30008e-06
1.30091e-06
1.30075e-06
1.29995e-06
1.30006e-06
1.30006e-06
1.30007e-06
1.29999e-06
1.30001e-06
1.30091e-06
1.30085e-06
1.30094e-06
1.30078e-06
1.30082e-06
1.30091e-06
1.28966e-06
1.28863e-06
1.28856e-06
1.2886e-06
1.2896e-06
1.28968e-06
1.2897e-06
1.28879e-06
1.2883e-06
1.28669e-06
1.28669e-06
1.28669e-06
1.28845e-06
1.28879e-06
1.28964e-06
1.28879e-06
1.2883e-06
1.28675e-06
1.28674e-06
1.28678e-06
1.28674e-06
1.28675e-06
1.28845e-06
1.28879e-06
1.28964e-06
1.28966e-06
1.2883e-06
1.28675e-06
1.28676e-06
1.28682e-06
1.28682e-06
1.28682e-06
1.28676e-06
1.28675e-06
1.28845e-06
1.28884e-06
1.28971e-06
1.28863e-06
1.28669e-06
1.28674e-06
1.28682e-06
1.28684e-06
1.28685e-06
1.28683e-06
1.28682e-06
1.28674e-06
1.28669e-06
1.28886e-06
1.28981e-06
1.28856e-06
1.28669e-06
1.28678e-06
1.28682e-06
1.28685e-06
1.28686e-06
1.28685e-06
1.28682e-06
1.28678e-06
1.28669e-06
1.28886e-06
1.28981e-06
1.2886e-06
1.28669e-06
1.28674e-06
1.28682e-06
1.28684e-06
1.28685e-06
1.28684e-06
1.28682e-06
1.28674e-06
1.28669e-06
1.28886e-06
1.28981e-06
1.2896e-06
1.28845e-06
1.28675e-06
1.28676e-06
1.28682e-06
1.28682e-06
1.28682e-06
1.28676e-06
1.28675e-06
1.28861e-06
1.28887e-06
1.28983e-06
1.28968e-06
1.28879e-06
1.28845e-06
1.28675e-06
1.28674e-06
1.28678e-06
1.28674e-06
1.28675e-06
1.28859e-06
1.28879e-06
1.28892e-06
1.28964e-06
1.28879e-06
1.28845e-06
1.28669e-06
1.28669e-06
1.28669e-06
1.28861e-06
1.28879e-06
1.2889e-06
1.28981e-06
1.28964e-06
1.28884e-06
1.28886e-06
1.28886e-06
1.28886e-06
1.28887e-06
1.28892e-06
1.28981e-06
1.28971e-06
1.28981e-06
1.28981e-06
1.28981e-06
1.28983e-06
1.27864e-06
1.27759e-06
1.27752e-06
1.27757e-06
1.27858e-06
1.27866e-06
1.27868e-06
1.27774e-06
1.27724e-06
1.27561e-06
1.27561e-06
1.27561e-06
1.27738e-06
1.27774e-06
1.27862e-06
1.27774e-06
1.27721e-06
1.27564e-06
1.27565e-06
1.27567e-06
1.27565e-06
1.27564e-06
1.27736e-06
1.27774e-06
1.27862e-06
1.27864e-06
1.27724e-06
1.27564e-06
1.27566e-06
1.2757e-06
1.27571e-06
1.2757e-06
1.27566e-06
1.27564e-06
1.27738e-06
1.27781e-06
1.2787e-06
1.27759e-06
1.27561e-06
1.27565e-06
1.2757e-06
1.27572e-06
1.27574e-06
1.27572e-06
1.2757e-06
1.27565e-06
1.27561e-06
1.27782e-06
1.2788e-06
1.27752e-06
1.27561e-06
1.27567e-06
1.27571e-06
1.27574e-06
1.27575e-06
1.27574e-06
1.27571e-06
1.27567e-06
1.27561e-06
1.2778e-06
1.27879e-06
1.27757e-06
1.27561e-06
1.27565e-06
1.2757e-06
1.27572e-06
1.27574e-06
1.27572e-06
1.2757e-06
1.27565e-06
1.27561e-06
1.27781e-06
1.27879e-06
1.27858e-06
1.27738e-06
1.27564e-06
1.27566e-06
1.2757e-06
1.27571e-06
1.2757e-06
1.27566e-06
1.27564e-06
1.27756e-06
1.27784e-06
1.27881e-06
1.27866e-06
1.27774e-06
1.27736e-06
1.27564e-06
1.27565e-06
1.27567e-06
1.27565e-06
1.27564e-06
1.27753e-06
1.27775e-06
1.2779e-06
1.27862e-06
1.27774e-06
1.27738e-06
1.27561e-06
1.27561e-06
1.27561e-06
1.27756e-06
1.27775e-06
1.27788e-06
1.2788e-06
1.27862e-06
1.27781e-06
1.27782e-06
1.2778e-06
1.27781e-06
1.27784e-06
1.2779e-06
1.2788e-06
1.2787e-06
1.2788e-06
1.27879e-06
1.27879e-06
1.27881e-06
1.26761e-06
1.26657e-06
1.26649e-06
1.26654e-06
1.26756e-06
1.26764e-06
1.26766e-06
1.26671e-06
1.2662e-06
1.26456e-06
1.26456e-06
1.26456e-06
1.26633e-06
1.26671e-06
1.2676e-06
1.26671e-06
1.26617e-06
1.26458e-06
1.26459e-06
1.2646e-06
1.26459e-06
1.26458e-06
1.26631e-06
1.2667e-06
1.2676e-06
1.26761e-06
1.2662e-06
1.26458e-06
1.26459e-06
1.26462e-06
1.26462e-06
1.26462e-06
1.26459e-06
1.26458e-06
1.26633e-06
1.26679e-06
1.26767e-06
1.26657e-06
1.26456e-06
1.26459e-06
1.26462e-06
1.26463e-06
1.26464e-06
1.26463e-06
1.26462e-06
1.26459e-06
1.26456e-06
1.26679e-06
1.26777e-06
1.26649e-06
1.26456e-06
1.2646e-06
1.26462e-06
1.26464e-06
1.26465e-06
1.26464e-06
1.26462e-06
1.2646e-06
1.26456e-06
1.26677e-06
1.26776e-06
1.26654e-06
1.26456e-06
1.26459e-06
1.26462e-06
1.26463e-06
1.26464e-06
1.26463e-06
1.26462e-06
1.26459e-06
1.26456e-06
1.26678e-06
1.26776e-06
1.26756e-06
1.26634e-06
1.26458e-06
1.26459e-06
1.26462e-06
1.26462e-06
1.26462e-06
1.26459e-06
1.26458e-06
1.26652e-06
1.26681e-06
1.26779e-06
1.26764e-06
1.26671e-06
1.26631e-06
1.26458e-06
1.26459e-06
1.2646e-06
1.26459e-06
1.26458e-06
1.26648e-06
1.26672e-06
1.26688e-06
1.2676e-06
1.2667e-06
1.26633e-06
1.26456e-06
1.26456e-06
1.26456e-06
1.26652e-06
1.26672e-06
1.26686e-06
1.26777e-06
1.2676e-06
1.26678e-06
1.26679e-06
1.26677e-06
1.26678e-06
1.26681e-06
1.26688e-06
1.26777e-06
1.26767e-06
1.26777e-06
1.26776e-06
1.26776e-06
1.26779e-06
1.25659e-06
1.25554e-06
1.25546e-06
1.25551e-06
1.25653e-06
1.25662e-06
1.25663e-06
1.25569e-06
1.25516e-06
1.25352e-06
1.25353e-06
1.25352e-06
1.2553e-06
1.25568e-06
1.25657e-06
1.25569e-06
1.25513e-06
1.25353e-06
1.25354e-06
1.25354e-06
1.25354e-06
1.25353e-06
1.25528e-06
1.25567e-06
1.25658e-06
1.25659e-06
1.25516e-06
1.25353e-06
1.25354e-06
1.25356e-06
1.25356e-06
1.25356e-06
1.25354e-06
1.25353e-06
1.2553e-06
1.25576e-06
1.25665e-06
1.25554e-06
1.25352e-06
1.25354e-06
1.25356e-06
1.25357e-06
1.25357e-06
1.25357e-06
1.25356e-06
1.25354e-06
1.25352e-06
1.25576e-06
1.25675e-06
1.25546e-06
1.25353e-06
1.25354e-06
1.25356e-06
1.25357e-06
1.25358e-06
1.25357e-06
1.25356e-06
1.25354e-06
1.25353e-06
1.25574e-06
1.25674e-06
1.25551e-06
1.25352e-06
1.25354e-06
1.25356e-06
1.25357e-06
1.25357e-06
1.25357e-06
1.25356e-06
1.25354e-06
1.25352e-06
1.25575e-06
1.25674e-06
1.25653e-06
1.2553e-06
1.25353e-06
1.25354e-06
1.25356e-06
1.25356e-06
1.25356e-06
1.25354e-06
1.25353e-06
1.25549e-06
1.25578e-06
1.25676e-06
1.25662e-06
1.25568e-06
1.25528e-06
1.25353e-06
1.25354e-06
1.25354e-06
1.25354e-06
1.25353e-06
1.25545e-06
1.25569e-06
1.25586e-06
1.25657e-06
1.25567e-06
1.2553e-06
1.25352e-06
1.25353e-06
1.25352e-06
1.25549e-06
1.25569e-06
1.25583e-06
1.25675e-06
1.25658e-06
1.25576e-06
1.25576e-06
1.25574e-06
1.25575e-06
1.25578e-06
1.25586e-06
1.25675e-06
1.25665e-06
1.25675e-06
1.25674e-06
1.25674e-06
1.25676e-06
1.24556e-06
1.24451e-06
1.24444e-06
1.24449e-06
1.24551e-06
1.24559e-06
1.24561e-06
1.24466e-06
1.24413e-06
1.24249e-06
1.24249e-06
1.24249e-06
1.24427e-06
1.24465e-06
1.24555e-06
1.24466e-06
1.2441e-06
1.2425e-06
1.2425e-06
1.2425e-06
1.2425e-06
1.2425e-06
1.24425e-06
1.24465e-06
1.24555e-06
1.24556e-06
1.24413e-06
1.2425e-06
1.2425e-06
1.24251e-06
1.24251e-06
1.24251e-06
1.2425e-06
1.2425e-06
1.24427e-06
1.24473e-06
1.24562e-06
1.24451e-06
1.24249e-06
1.2425e-06
1.24251e-06
1.24252e-06
1.24252e-06
1.24252e-06
1.24251e-06
1.2425e-06
1.24249e-06
1.24473e-06
1.24572e-06
1.24444e-06
1.24249e-06
1.2425e-06
1.24251e-06
1.24252e-06
1.24252e-06
1.24252e-06
1.24251e-06
1.2425e-06
1.24249e-06
1.24471e-06
1.24571e-06
1.24449e-06
1.24249e-06
1.2425e-06
1.24251e-06
1.24252e-06
1.24252e-06
1.24252e-06
1.24251e-06
1.2425e-06
1.24249e-06
1.24472e-06
1.24571e-06
1.24551e-06
1.24427e-06
1.2425e-06
1.2425e-06
1.24251e-06
1.24251e-06
1.24251e-06
1.2425e-06
1.2425e-06
1.24446e-06
1.24475e-06
1.24573e-06
1.24559e-06
1.24465e-06
1.24425e-06
1.2425e-06
1.2425e-06
1.2425e-06
1.2425e-06
1.2425e-06
1.24442e-06
1.24466e-06
1.24483e-06
1.24555e-06
1.24465e-06
1.24427e-06
1.24249e-06
1.24249e-06
1.24249e-06
1.24446e-06
1.24466e-06
1.2448e-06
1.24572e-06
1.24555e-06
1.24473e-06
1.24473e-06
1.24471e-06
1.24472e-06
1.24475e-06
1.24483e-06
1.24572e-06
1.24562e-06
1.24572e-06
1.24571e-06
1.24571e-06
1.24573e-06
1.23453e-06
1.23348e-06
1.23341e-06
1.23346e-06
1.23448e-06
1.23456e-06
1.23458e-06
1.23363e-06
1.23311e-06
1.23146e-06
1.23146e-06
1.23146e-06
1.23324e-06
1.23362e-06
1.23452e-06
1.23363e-06
1.23307e-06
1.23146e-06
1.23147e-06
1.23147e-06
1.23147e-06
1.23146e-06
1.23322e-06
1.23362e-06
1.23452e-06
1.23453e-06
1.23311e-06
1.23146e-06
1.23147e-06
1.23147e-06
1.23147e-06
1.23147e-06
1.23147e-06
1.23146e-06
1.23324e-06
1.2337e-06
1.23459e-06
1.23348e-06
1.23146e-06
1.23147e-06
1.23147e-06
1.23147e-06
1.23148e-06
1.23147e-06
1.23147e-06
1.23147e-06
1.23146e-06
1.23371e-06
1.23469e-06
1.23341e-06
1.23146e-06
1.23147e-06
1.23147e-06
1.23148e-06
1.23148e-06
1.23148e-06
1.23147e-06
1.23147e-06
1.23146e-06
1.23368e-06
1.23468e-06
1.23346e-06
1.23146e-06
1.23147e-06
1.23147e-06
1.23147e-06
1.23148e-06
1.23147e-06
1.23147e-06
1.23147e-06
1.23146e-06
1.23369e-06
1.23468e-06
1.23448e-06
1.23324e-06
1.23146e-06
1.23147e-06
1.23147e-06
1.23147e-06
1.23147e-06
1.23147e-06
1.23146e-06
1.23343e-06
1.23373e-06
1.2347e-06
1.23456e-06
1.23362e-06
1.23322e-06
1.23146e-06
1.23147e-06
1.23147e-06
1.23147e-06
1.23146e-06
1.23339e-06
1.23363e-06
1.2338e-06
1.23452e-06
1.23362e-06
1.23324e-06
1.23146e-06
1.23146e-06
1.23146e-06
1.23343e-06
1.23363e-06
1.23378e-06
1.2347e-06
1.23452e-06
1.2337e-06
1.23371e-06
1.23368e-06
1.23369e-06
1.23373e-06
1.2338e-06
1.23469e-06
1.23459e-06
1.23469e-06
1.23468e-06
1.23468e-06
1.2347e-06
1.22351e-06
1.22245e-06
1.22238e-06
1.22243e-06
1.22345e-06
1.22353e-06
1.22355e-06
1.2226e-06
1.22208e-06
1.22043e-06
1.22043e-06
1.22043e-06
1.22222e-06
1.22259e-06
1.22349e-06
1.2226e-06
1.22204e-06
1.22043e-06
1.22044e-06
1.22044e-06
1.22044e-06
1.22043e-06
1.22219e-06
1.22259e-06
1.22349e-06
1.22351e-06
1.22208e-06
1.22043e-06
1.22044e-06
1.22044e-06
1.22044e-06
1.22044e-06
1.22044e-06
1.22043e-06
1.22221e-06
1.22267e-06
1.22356e-06
1.22245e-06
1.22043e-06
1.22043e-06
1.22044e-06
1.22044e-06
1.22044e-06
1.22044e-06
1.22044e-06
1.22044e-06
1.22043e-06
1.22268e-06
1.22366e-06
1.22238e-06
1.22043e-06
1.22044e-06
1.22044e-06
1.22044e-06
1.22044e-06
1.22044e-06
1.22044e-06
1.22044e-06
1.22043e-06
1.22265e-06
1.22365e-06
1.22243e-06
1.22043e-06
1.22044e-06
1.22044e-06
1.22044e-06
1.22044e-06
1.22044e-06
1.22044e-06
1.22044e-06
1.22043e-06
1.22266e-06
1.22366e-06
1.22345e-06
1.22222e-06
1.22043e-06
1.22044e-06
1.22044e-06
1.22044e-06
1.22044e-06
1.22044e-06
1.22043e-06
1.2224e-06
1.2227e-06
1.22368e-06
1.22353e-06
1.22259e-06
1.22219e-06
1.22043e-06
1.22044e-06
1.22044e-06
1.22044e-06
1.22043e-06
1.22236e-06
1.2226e-06
1.22277e-06
1.22349e-06
1.22259e-06
1.22221e-06
1.22043e-06
1.22043e-06
1.22043e-06
1.2224e-06
1.2226e-06
1.22275e-06
1.22367e-06
1.22349e-06
1.22267e-06
1.22268e-06
1.22265e-06
1.22266e-06
1.2227e-06
1.22277e-06
1.22367e-06
1.22356e-06
1.22366e-06
1.22365e-06
1.22366e-06
1.22368e-06
1.21248e-06
1.21143e-06
1.21135e-06
1.2114e-06
1.21242e-06
1.2125e-06
1.21252e-06
1.21157e-06
1.21105e-06
1.2094e-06
1.2094e-06
1.2094e-06
1.21119e-06
1.21156e-06
1.21246e-06
1.21157e-06
1.21102e-06
1.2094e-06
1.2094e-06
1.20941e-06
1.2094e-06
1.2094e-06
1.21116e-06
1.21156e-06
1.21247e-06
1.21248e-06
1.21105e-06
1.2094e-06
1.20941e-06
1.20941e-06
1.20941e-06
1.20941e-06
1.20941e-06
1.2094e-06
1.21118e-06
1.21165e-06
1.21254e-06
1.21143e-06
1.2094e-06
1.20941e-06
1.20941e-06
1.20941e-06
1.20941e-06
1.20941e-06
1.20941e-06
1.2094e-06
1.2094e-06
1.21165e-06
1.21264e-06
1.21135e-06
1.2094e-06
1.20941e-06
1.20941e-06
1.20941e-06
1.20941e-06
1.20941e-06
1.20941e-06
1.20941e-06
1.2094e-06
1.21162e-06
1.21262e-06
1.2114e-06
1.2094e-06
1.2094e-06
1.20941e-06
1.20941e-06
1.20941e-06
1.20941e-06
1.20941e-06
1.20941e-06
1.2094e-06
1.21163e-06
1.21263e-06
1.21242e-06
1.21119e-06
1.2094e-06
1.20941e-06
1.20941e-06
1.20941e-06
1.20941e-06
1.20941e-06
1.2094e-06
1.21137e-06
1.21167e-06
1.21265e-06
1.2125e-06
1.21156e-06
1.21116e-06
1.2094e-06
1.20941e-06
1.20941e-06
1.2094e-06
1.2094e-06
1.21133e-06
1.21157e-06
1.21175e-06
1.21246e-06
1.21156e-06
1.21118e-06
1.2094e-06
1.2094e-06
1.2094e-06
1.21137e-06
1.21157e-06
1.21172e-06
1.21264e-06
1.21247e-06
1.21165e-06
1.21165e-06
1.21162e-06
1.21163e-06
1.21167e-06
1.21175e-06
1.21264e-06
1.21254e-06
1.21264e-06
1.21262e-06
1.21263e-06
1.21265e-06
1.20145e-06
1.2004e-06
1.20032e-06
1.20037e-06
1.20139e-06
1.20148e-06
1.2015e-06
1.20054e-06
1.20002e-06
1.19837e-06
1.19837e-06
1.19837e-06
1.20016e-06
1.20054e-06
1.20143e-06
1.20054e-06
1.19999e-06
1.19837e-06
1.19838e-06
1.19838e-06
1.19838e-06
1.19837e-06
1.20013e-06
1.20053e-06
1.20144e-06
1.20145e-06
1.20002e-06
1.19837e-06
1.19838e-06
1.19838e-06
1.19838e-06
1.19838e-06
1.19838e-06
1.19837e-06
1.20016e-06
1.20062e-06
1.20151e-06
1.2004e-06
1.19837e-06
1.19838e-06
1.19838e-06
1.19838e-06
1.19838e-06
1.19838e-06
1.19838e-06
1.19838e-06
1.19837e-06
1.20062e-06
1.20161e-06
1.20032e-06
1.19837e-06
1.19838e-06
1.19838e-06
1.19838e-06
1.19838e-06
1.19838e-06
1.19838e-06
1.19838e-06
1.19837e-06
1.20059e-06
1.2016e-06
1.20037e-06
1.19837e-06
1.19838e-06
1.19838e-06
1.19838e-06
1.19838e-06
1.19838e-06
1.19838e-06
1.19838e-06
1.19837e-06
1.20061e-06
1.2016e-06
1.20139e-06
1.20016e-06
1.19837e-06
1.19838e-06
1.19838e-06
1.19838e-06
1.19838e-06
1.19838e-06
1.19837e-06
1.20034e-06
1.20064e-06
1.20162e-06
1.20148e-06
1.20054e-06
1.20013e-06
1.19837e-06
1.19838e-06
1.19838e-06
1.19838e-06
1.19837e-06
1.2003e-06
1.20055e-06
1.20072e-06
1.20143e-06
1.20053e-06
1.20016e-06
1.19837e-06
1.19837e-06
1.19837e-06
1.20034e-06
1.20055e-06
1.20069e-06
1.20161e-06
1.20144e-06
1.20062e-06
1.20062e-06
1.20059e-06
1.20061e-06
1.20064e-06
1.20072e-06
1.20161e-06
1.20151e-06
1.20161e-06
1.2016e-06
1.2016e-06
1.20162e-06
1.19042e-06
1.18937e-06
1.18929e-06
1.18934e-06
1.19037e-06
1.19045e-06
1.19047e-06
1.18952e-06
1.18899e-06
1.18735e-06
1.18735e-06
1.18735e-06
1.18913e-06
1.18951e-06
1.1904e-06
1.18952e-06
1.18896e-06
1.18735e-06
1.18735e-06
1.18735e-06
1.18735e-06
1.18735e-06
1.1891e-06
1.1895e-06
1.19041e-06
1.19042e-06
1.18899e-06
1.18735e-06
1.18735e-06
1.18735e-06
1.18735e-06
1.18735e-06
1.18735e-06
1.18735e-06
1.18913e-06
1.18959e-06
1.19048e-06
1.18937e-06
1.18735e-06
1.18735e-06
1.18735e-06
1.18735e-06
1.18735e-06
1.18735e-06
1.18735e-06
1.18735e-06
1.18735e-06
1.18959e-06
1.19058e-06
1.18929e-06
1.18735e-06
1.18735e-06
1.18735e-06
1.18735e-06
1.18735e-06
1.18735e-06
1.18735e-06
1.18735e-06
1.18735e-06
1.18957e-06
1.19057e-06
1.18934e-06
1.18735e-06
1.18735e-06
1.18735e-06
1.18735e-06
1.18735e-06
1.18735e-06
1.18735e-06
1.18735e-06
1.18735e-06
1.18958e-06
1.19057e-06
1.19037e-06
1.18913e-06
1.18735e-06
1.18735e-06
1.18735e-06
1.18735e-06
1.18735e-06
1.18735e-06
1.18735e-06
1.18931e-06
1.18961e-06
1.19059e-06
1.19045e-06
1.18951e-06
1.1891e-06
1.18735e-06
1.18735e-06
1.18735e-06
1.18735e-06
1.18735e-06
1.18928e-06
1.18952e-06
1.18969e-06
1.1904e-06
1.1895e-06
1.18913e-06
1.18735e-06
1.18735e-06
1.18735e-06
1.18931e-06
1.18952e-06
1.18966e-06
1.19058e-06
1.19041e-06
1.18959e-06
1.18959e-06
1.18957e-06
1.18958e-06
1.18961e-06
1.18969e-06
1.19058e-06
1.19048e-06
1.19058e-06
1.19057e-06
1.19057e-06
1.19059e-06
1.17939e-06
1.17834e-06
1.17826e-06
1.17831e-06
1.17934e-06
1.17942e-06
1.17944e-06
1.17849e-06
1.17796e-06
1.17632e-06
1.17632e-06
1.17632e-06
1.1781e-06
1.17848e-06
1.17938e-06
1.17849e-06
1.17793e-06
1.17632e-06
1.17632e-06
1.17632e-06
1.17632e-06
1.17632e-06
1.17808e-06
1.17847e-06
1.17938e-06
1.17939e-06
1.17796e-06
1.17632e-06
1.17632e-06
1.17632e-06
1.17632e-06
1.17632e-06
1.17632e-06
1.17632e-06
1.1781e-06
1.17856e-06
1.17945e-06
1.17834e-06
1.17632e-06
1.17632e-06
1.17632e-06
1.17632e-06
1.17632e-06
1.17632e-06
1.17632e-06
1.17632e-06
1.17632e-06
1.17856e-06
1.17955e-06
1.17826e-06
1.17632e-06
1.17632e-06
1.17632e-06
1.17632e-06
1.17632e-06
1.17632e-06
1.17632e-06
1.17632e-06
1.17632e-06
1.17854e-06
1.17954e-06
1.17831e-06
1.17632e-06
1.17632e-06
1.17632e-06
1.17632e-06
1.17632e-06
1.17632e-06
1.17632e-06
1.17632e-06
1.17632e-06
1.17855e-06
1.17954e-06
1.17934e-06
1.1781e-06
1.17632e-06
1.17632e-06
1.17632e-06
1.17632e-06
1.17632e-06
1.17632e-06
1.17632e-06
1.17828e-06
1.17858e-06
1.17956e-06
1.17942e-06
1.17848e-06
1.17808e-06
1.17632e-06
1.17632e-06
1.17632e-06
1.17632e-06
1.17632e-06
1.17825e-06
1.17849e-06
1.17866e-06
1.17938e-06
1.17847e-06
1.1781e-06
1.17632e-06
1.17632e-06
1.17632e-06
1.17828e-06
1.17849e-06
1.17863e-06
1.17955e-06
1.17938e-06
1.17856e-06
1.17856e-06
1.17854e-06
1.17855e-06
1.17858e-06
1.17866e-06
1.17955e-06
1.17945e-06
1.17955e-06
1.17954e-06
1.17954e-06
1.17956e-06
1.16836e-06
1.16731e-06
1.16724e-06
1.16729e-06
1.16831e-06
1.16839e-06
1.16841e-06
1.16746e-06
1.16693e-06
1.16529e-06
1.16529e-06
1.16529e-06
1.16707e-06
1.16745e-06
1.16835e-06
1.16746e-06
1.1669e-06
1.16529e-06
1.16529e-06
1.16529e-06
1.16529e-06
1.16529e-06
1.16705e-06
1.16745e-06
1.16835e-06
1.16836e-06
1.16693e-06
1.16529e-06
1.16529e-06
1.16529e-06
1.16529e-06
1.16529e-06
1.16529e-06
1.16529e-06
1.16707e-06
1.16753e-06
1.16842e-06
1.16731e-06
1.16529e-06
1.16529e-06
1.16529e-06
1.16529e-06
1.16529e-06
1.16529e-06
1.16529e-06
1.16529e-06
1.16529e-06
1.16753e-06
1.16852e-06
1.16724e-06
1.16529e-06
1.16529e-06
1.16529e-06
1.16529e-06
1.16529e-06
1.16529e-06
1.16529e-06
1.16529e-06
1.16529e-06
1.16751e-06
1.16851e-06
1.16729e-06
1.16529e-06
1.16529e-06
1.16529e-06
1.16529e-06
1.16529e-06
1.16529e-06
1.16529e-06
1.16529e-06
1.16529e-06
1.16752e-06
1.16851e-06
1.16831e-06
1.16707e-06
1.16529e-06
1.16529e-06
1.16529e-06
1.16529e-06
1.16529e-06
1.16529e-06
1.16529e-06
1.16726e-06
1.16756e-06
1.16853e-06
1.16839e-06
1.16745e-06
1.16705e-06
1.16529e-06
1.16529e-06
1.16529e-06
1.16529e-06
1.16529e-06
1.16722e-06
1.16746e-06
1.16763e-06
1.16835e-06
1.16745e-06
1.16707e-06
1.16529e-06
1.16529e-06
1.16529e-06
1.16726e-06
1.16746e-06
1.16761e-06
1.16852e-06
1.16835e-06
1.16753e-06
1.16753e-06
1.16751e-06
1.16752e-06
1.16756e-06
1.16763e-06
1.16852e-06
1.16842e-06
1.16852e-06
1.16851e-06
1.16851e-06
1.16853e-06
1.15733e-06
1.15628e-06
1.15621e-06
1.15626e-06
1.15728e-06
1.15736e-06
1.15738e-06
1.15643e-06
1.15591e-06
1.15426e-06
1.15426e-06
1.15426e-06
1.15604e-06
1.15642e-06
1.15732e-06
1.15643e-06
1.15587e-06
1.15426e-06
1.15426e-06
1.15426e-06
1.15426e-06
1.15426e-06
1.15602e-06
1.15642e-06
1.15732e-06
1.15733e-06
1.15591e-06
1.15426e-06
1.15426e-06
1.15426e-06
1.15426e-06
1.15426e-06
1.15426e-06
1.15426e-06
1.15604e-06
1.1565e-06
1.15739e-06
1.15628e-06
1.15426e-06
1.15426e-06
1.15426e-06
1.15426e-06
1.15426e-06
1.15426e-06
1.15426e-06
1.15426e-06
1.15426e-06
1.15651e-06
1.15749e-06
1.15621e-06
1.15426e-06
1.15426e-06
1.15426e-06
1.15426e-06
1.15426e-06
1.15426e-06
1.15426e-06
1.15426e-06
1.15426e-06
1.15648e-06
1.15748e-06
1.15626e-06
1.15426e-06
1.15426e-06
1.15426e-06
1.15426e-06
1.15426e-06
1.15426e-06
1.15426e-06
1.15426e-06
1.15426e-06
1.15649e-06
1.15748e-06
1.15728e-06
1.15604e-06
1.15426e-06
1.15426e-06
1.15426e-06
1.15426e-06
1.15426e-06
1.15426e-06
1.15426e-06
1.15623e-06
1.15653e-06
1.15751e-06
1.15736e-06
1.15642e-06
1.15602e-06
1.15426e-06
1.15426e-06
1.15426e-06
1.15426e-06
1.15426e-06
1.15619e-06
1.15643e-06
1.1566e-06
1.15732e-06
1.15642e-06
1.15604e-06
1.15426e-06
1.15426e-06
1.15426e-06
1.15623e-06
1.15643e-06
1.15658e-06
1.1575e-06
1.15732e-06
1.1565e-06
1.15651e-06
1.15648e-06
1.15649e-06
1.15653e-06
1.1566e-06
1.1575e-06
1.15739e-06
1.15749e-06
1.15748e-06
1.15748e-06
1.15751e-06
1.14631e-06
1.14525e-06
1.14518e-06
1.14523e-06
1.14625e-06
1.14633e-06
1.14635e-06
1.1454e-06
1.14488e-06
1.14323e-06
1.14323e-06
1.14323e-06
1.14502e-06
1.14539e-06
1.14629e-06
1.1454e-06
1.14484e-06
1.14323e-06
1.14323e-06
1.14323e-06
1.14323e-06
1.14323e-06
1.14499e-06
1.14539e-06
1.1463e-06
1.14631e-06
1.14488e-06
1.14323e-06
1.14323e-06
1.14323e-06
1.14323e-06
1.14323e-06
1.14323e-06
1.14323e-06
1.14501e-06
1.14547e-06
1.14636e-06
1.14525e-06
1.14323e-06
1.14323e-06
1.14323e-06
1.14323e-06
1.14323e-06
1.14323e-06
1.14323e-06
1.14323e-06
1.14323e-06
1.14548e-06
1.14647e-06
1.14518e-06
1.14323e-06
1.14323e-06
1.14323e-06
1.14323e-06
1.14323e-06
1.14323e-06
1.14323e-06
1.14323e-06
1.14323e-06
1.14545e-06
1.14645e-06
1.14523e-06
1.14323e-06
1.14323e-06
1.14323e-06
1.14323e-06
1.14323e-06
1.14323e-06
1.14323e-06
1.14323e-06
1.14323e-06
1.14546e-06
1.14646e-06
1.14625e-06
1.14502e-06
1.14323e-06
1.14323e-06
1.14323e-06
1.14323e-06
1.14323e-06
1.14323e-06
1.14323e-06
1.1452e-06
1.1455e-06
1.14648e-06
1.14633e-06
1.14539e-06
1.14499e-06
1.14323e-06
1.14323e-06
1.14323e-06
1.14323e-06
1.14323e-06
1.14516e-06
1.1454e-06
1.14557e-06
1.14629e-06
1.14539e-06
1.14501e-06
1.14323e-06
1.14323e-06
1.14323e-06
1.1452e-06
1.1454e-06
1.14555e-06
1.14647e-06
1.1463e-06
1.14547e-06
1.14548e-06
1.14545e-06
1.14546e-06
1.1455e-06
1.14557e-06
1.14647e-06
1.14636e-06
1.14647e-06
1.14645e-06
1.14646e-06
1.14648e-06
1.13528e-06
1.13423e-06
1.13415e-06
1.1342e-06
1.13522e-06
1.1353e-06
1.13532e-06
1.13437e-06
1.13385e-06
1.1322e-06
1.1322e-06
1.1322e-06
1.13399e-06
1.13436e-06
1.13526e-06
1.13437e-06
1.13382e-06
1.1322e-06
1.1322e-06
1.1322e-06
1.1322e-06
1.1322e-06
1.13396e-06
1.13436e-06
1.13527e-06
1.13528e-06
1.13385e-06
1.1322e-06
1.1322e-06
1.1322e-06
1.1322e-06
1.1322e-06
1.1322e-06
1.1322e-06
1.13398e-06
1.13445e-06
1.13534e-06
1.13423e-06
1.1322e-06
1.1322e-06
1.1322e-06
1.1322e-06
1.1322e-06
1.1322e-06
1.1322e-06
1.1322e-06
1.1322e-06
1.13445e-06
1.13544e-06
1.13415e-06
1.1322e-06
1.1322e-06
1.1322e-06
1.1322e-06
1.1322e-06
1.1322e-06
1.1322e-06
1.1322e-06
1.1322e-06
1.13442e-06
1.13542e-06
1.1342e-06
1.1322e-06
1.1322e-06
1.1322e-06
1.1322e-06
1.1322e-06
1.1322e-06
1.1322e-06
1.1322e-06
1.1322e-06
1.13443e-06
1.13543e-06
1.13522e-06
1.13399e-06
1.1322e-06
1.1322e-06
1.1322e-06
1.1322e-06
1.1322e-06
1.1322e-06
1.1322e-06
1.13417e-06
1.13447e-06
1.13545e-06
1.1353e-06
1.13436e-06
1.13396e-06
1.1322e-06
1.1322e-06
1.1322e-06
1.1322e-06
1.1322e-06
1.13413e-06
1.13437e-06
1.13455e-06
1.13526e-06
1.13436e-06
1.13398e-06
1.1322e-06
1.1322e-06
1.1322e-06
1.13417e-06
1.13437e-06
1.13452e-06
1.13544e-06
1.13527e-06
1.13445e-06
1.13445e-06
1.13442e-06
1.13443e-06
1.13447e-06
1.13455e-06
1.13544e-06
1.13534e-06
1.13544e-06
1.13542e-06
1.13543e-06
1.13545e-06
1.12425e-06
1.1232e-06
1.12312e-06
1.12317e-06
1.12419e-06
1.12428e-06
1.1243e-06
1.12335e-06
1.12282e-06
1.12117e-06
1.12117e-06
1.12117e-06
1.12296e-06
1.12334e-06
1.12423e-06
1.12335e-06
1.12279e-06
1.12117e-06
1.12118e-06
1.12117e-06
1.12118e-06
1.12117e-06
1.12293e-06
1.12333e-06
1.12424e-06
1.12425e-06
1.12282e-06
1.12117e-06
1.12117e-06
1.12117e-06
1.12117e-06
1.12117e-06
1.12117e-06
1.12117e-06
1.12296e-06
1.12342e-06
1.12431e-06
1.1232e-06
1.12117e-06
1.12118e-06
1.12117e-06
1.12118e-06
1.12117e-06
1.12118e-06
1.12117e-06
1.12118e-06
1.12117e-06
1.12342e-06
1.12441e-06
1.12312e-06
1.12117e-06
1.12117e-06
1.12117e-06
1.12117e-06
1.12117e-06
1.12117e-06
1.12117e-06
1.12117e-06
1.12117e-06
1.12339e-06
1.1244e-06
1.12317e-06
1.12117e-06
1.12118e-06
1.12117e-06
1.12118e-06
1.12117e-06
1.12118e-06
1.12117e-06
1.12118e-06
1.12117e-06
1.12341e-06
1.1244e-06
1.12419e-06
1.12296e-06
1.12117e-06
1.12117e-06
1.12117e-06
1.12117e-06
1.12117e-06
1.12117e-06
1.12117e-06
1.12314e-06
1.12344e-06
1.12442e-06
1.12428e-06
1.12334e-06
1.12293e-06
1.12117e-06
1.12118e-06
1.12117e-06
1.12118e-06
1.12117e-06
1.1231e-06
1.12335e-06
1.12352e-06
1.12423e-06
1.12333e-06
1.12296e-06
1.12117e-06
1.12117e-06
1.12117e-06
1.12314e-06
1.12335e-06
1.12349e-06
1.12441e-06
1.12424e-06
1.12342e-06
1.12342e-06
1.12339e-06
1.12341e-06
1.12344e-06
1.12352e-06
1.12441e-06
1.12431e-06
1.12441e-06
1.1244e-06
1.1244e-06
1.12442e-06
1.11322e-06
1.11217e-06
1.11209e-06
1.11214e-06
1.11317e-06
1.11325e-06
1.11327e-06
1.11232e-06
1.11179e-06
1.11015e-06
1.11015e-06
1.11015e-06
1.11193e-06
1.11231e-06
1.11321e-06
1.11232e-06
1.11176e-06
1.11015e-06
1.11015e-06
1.11015e-06
1.11015e-06
1.11015e-06
1.1119e-06
1.1123e-06
1.11321e-06
1.11322e-06
1.11179e-06
1.11015e-06
1.11015e-06
1.11015e-06
1.11015e-06
1.11015e-06
1.11015e-06
1.11015e-06
1.11193e-06
1.11239e-06
1.11328e-06
1.11217e-06
1.11015e-06
1.11015e-06
1.11015e-06
1.11015e-06
1.11015e-06
1.11015e-06
1.11015e-06
1.11015e-06
1.11015e-06
1.11239e-06
1.11338e-06
1.11209e-06
1.11015e-06
1.11015e-06
1.11015e-06
1.11015e-06
1.11015e-06
1.11015e-06
1.11015e-06
1.11015e-06
1.11015e-06
1.11237e-06
1.11337e-06
1.11214e-06
1.11015e-06
1.11015e-06
1.11015e-06
1.11015e-06
1.11015e-06
1.11015e-06
1.11015e-06
1.11015e-06
1.11015e-06
1.11238e-06
1.11337e-06
1.11317e-06
1.11193e-06
1.11015e-06
1.11015e-06
1.11015e-06
1.11015e-06
1.11015e-06
1.11015e-06
1.11015e-06
1.11211e-06
1.11241e-06
1.11339e-06
1.11325e-06
1.11231e-06
1.1119e-06
1.11015e-06
1.11015e-06
1.11015e-06
1.11015e-06
1.11015e-06
1.11208e-06
1.11232e-06
1.11249e-06
1.11321e-06
1.1123e-06
1.11193e-06
1.11015e-06
1.11015e-06
1.11015e-06
1.11211e-06
1.11232e-06
1.11246e-06
1.11338e-06
1.11321e-06
1.11239e-06
1.11239e-06
1.11237e-06
1.11238e-06
1.11241e-06
1.11249e-06
1.11338e-06
1.11328e-06
1.11338e-06
1.11337e-06
1.11337e-06
1.11339e-06
1.10219e-06
1.10114e-06
1.10106e-06
1.10111e-06
1.10214e-06
1.10222e-06
1.10224e-06
1.10129e-06
1.10076e-06
1.09912e-06
1.09912e-06
1.09912e-06
1.1009e-06
1.10128e-06
1.10218e-06
1.10129e-06
1.10073e-06
1.09912e-06
1.09912e-06
1.09912e-06
1.09912e-06
1.09912e-06
1.10088e-06
1.10128e-06
1.10218e-06
1.10219e-06
1.10076e-06
1.09912e-06
1.09912e-06
1.09912e-06
1.09912e-06
1.09912e-06
1.09912e-06
1.09912e-06
1.1009e-06
1.10136e-06
1.10225e-06
1.10114e-06
1.09912e-06
1.09912e-06
1.09912e-06
1.09912e-06
1.09912e-06
1.09912e-06
1.09912e-06
1.09912e-06
1.09912e-06
1.10136e-06
1.10235e-06
1.10106e-06
1.09912e-06
1.09912e-06
1.09912e-06
1.09912e-06
1.09912e-06
1.09912e-06
1.09912e-06
1.09912e-06
1.09912e-06
1.10134e-06
1.10234e-06
1.10111e-06
1.09912e-06
1.09912e-06
1.09912e-06
1.09912e-06
1.09912e-06
1.09912e-06
1.09912e-06
1.09912e-06
1.09912e-06
1.10135e-06
1.10234e-06
1.10214e-06
1.1009e-06
1.09912e-06
1.09912e-06
1.09912e-06
1.09912e-06
1.09912e-06
1.09912e-06
1.09912e-06
1.10108e-06
1.10138e-06
1.10236e-06
1.10222e-06
1.10128e-06
1.10088e-06
1.09912e-06
1.09912e-06
1.09912e-06
1.09912e-06
1.09912e-06
1.10105e-06
1.10129e-06
1.10146e-06
1.10218e-06
1.10128e-06
1.1009e-06
1.09912e-06
1.09912e-06
1.09912e-06
1.10108e-06
1.10129e-06
1.10143e-06
1.10235e-06
1.10218e-06
1.10136e-06
1.10136e-06
1.10134e-06
1.10135e-06
1.10138e-06
1.10146e-06
1.10235e-06
1.10225e-06
1.10235e-06
1.10234e-06
1.10234e-06
1.10236e-06
1.09116e-06
1.09011e-06
1.09004e-06
1.09009e-06
1.09111e-06
1.09119e-06
1.09121e-06
1.09026e-06
1.08973e-06
1.08809e-06
1.08809e-06
1.08809e-06
1.08987e-06
1.09025e-06
1.09115e-06
1.09026e-06
1.0897e-06
1.08809e-06
1.08809e-06
1.08809e-06
1.08809e-06
1.08809e-06
1.08985e-06
1.09025e-06
1.09115e-06
1.09116e-06
1.08973e-06
1.08809e-06
1.08809e-06
1.08809e-06
1.08809e-06
1.08809e-06
1.08809e-06
1.08809e-06
1.08987e-06
1.09033e-06
1.09122e-06
1.09011e-06
1.08809e-06
1.08809e-06
1.08809e-06
1.08809e-06
1.08809e-06
1.08809e-06
1.08809e-06
1.08809e-06
1.08809e-06
1.09033e-06
1.09132e-06
1.09004e-06
1.08809e-06
1.08809e-06
1.08809e-06
1.08809e-06
1.08809e-06
1.08809e-06
1.08809e-06
1.08809e-06
1.08809e-06
1.09031e-06
1.09131e-06
1.09009e-06
1.08809e-06
1.08809e-06
1.08809e-06
1.08809e-06
1.08809e-06