/*--------------------------------*- C++ -*----------------------------------*\
| =========                 |                                                 |
| \\      /  F ield         | OpenFOAM: The Open Source CFD Toolbox           |
|  \\    /   O peration     | Version:  v2012                                 |
|   \\  /    A nd           | Website:  www.openfoam.com                      |
|    \\/     M anipulation  |                                                 |
\*---------------------------------------------------------------------------*/
FoamFile
{
    version     2.0;
    format      ascii;
    class       volScalarField;
    location    "40";
    object      p;
}
// * * * * * * * * * * * * * * * * * * * * * * * * * * * * * * * * * * * * * //

dimensions      [0 2 -2 0 0 0 0];


internalField   nonuniform List<scalar> 
292667
(
1.29442e-06
1.28455e-06
1.28373e-06
1.2838e-06
1.28494e-06
1.29536e-06
1.28476e-06
1.28186e-06
1.28018e-06
1.27949e-06
1.27958e-06
1.28048e-06
1.28243e-06
1.2856e-06
1.28476e-06
1.28101e-06
1.27869e-06
1.27742e-06
1.27688e-06
1.27696e-06
1.27765e-06
1.27913e-06
1.28176e-06
1.28585e-06
1.29442e-06
1.28186e-06
1.27869e-06
1.27682e-06
1.27578e-06
1.27533e-06
1.27539e-06
1.27597e-06
1.27719e-06
1.27932e-06
1.28288e-06
1.29421e-06
1.28455e-06
1.28018e-06
1.27742e-06
1.27578e-06
1.27484e-06
1.27444e-06
1.27449e-06
1.27502e-06
1.2761e-06
1.27798e-06
1.28111e-06
1.28849e-06
1.28373e-06
1.27949e-06
1.27688e-06
1.27533e-06
1.27444e-06
1.27405e-06
1.2741e-06
1.27461e-06
1.27564e-06
1.27741e-06
1.28038e-06
1.28669e-06
1.2838e-06
1.27958e-06
1.27696e-06
1.27539e-06
1.27449e-06
1.2741e-06
1.27416e-06
1.27466e-06
1.27571e-06
1.27749e-06
1.28048e-06
1.28702e-06
1.28494e-06
1.28048e-06
1.27765e-06
1.27597e-06
1.27502e-06
1.27461e-06
1.27466e-06
1.2752e-06
1.27631e-06
1.27823e-06
1.28145e-06
1.28883e-06
1.29536e-06
1.28243e-06
1.27913e-06
1.27719e-06
1.2761e-06
1.27564e-06
1.27571e-06
1.27631e-06
1.27758e-06
1.27981e-06
1.2835e-06
1.29417e-06
1.2856e-06
1.28176e-06
1.27932e-06
1.27798e-06
1.27741e-06
1.27749e-06
1.27823e-06
1.27981e-06
1.28259e-06
1.28941e-06
1.28585e-06
1.28288e-06
1.28111e-06
1.28038e-06
1.28048e-06
1.28145e-06
1.2835e-06
1.2894e-06
1.29421e-06
1.28849e-06
1.28669e-06
1.28702e-06
1.28882e-06
1.29417e-06
1.2661e-06
1.2651e-06
1.26507e-06
1.2651e-06
1.26603e-06
1.26596e-06
1.26617e-06
1.26537e-06
1.26496e-06
1.26339e-06
1.26336e-06
1.26339e-06
1.26511e-06
1.26538e-06
1.26615e-06
1.26537e-06
1.26497e-06
1.26344e-06
1.26336e-06
1.26342e-06
1.26336e-06
1.26344e-06
1.26508e-06
1.26535e-06
1.26613e-06
1.2661e-06
1.26496e-06
1.26344e-06
1.26337e-06
1.26341e-06
1.2634e-06
1.26341e-06
1.26337e-06
1.26344e-06
1.26506e-06
1.26537e-06
1.26621e-06
1.2651e-06
1.26339e-06
1.26336e-06
1.26341e-06
1.26337e-06
1.26337e-06
1.26337e-06
1.26341e-06
1.26336e-06
1.26339e-06
1.26549e-06
1.26631e-06
1.26507e-06
1.26336e-06
1.26342e-06
1.2634e-06
1.26337e-06
1.26336e-06
1.26337e-06
1.2634e-06
1.26342e-06
1.26336e-06
1.26549e-06
1.26617e-06
1.2651e-06
1.26339e-06
1.26336e-06
1.26341e-06
1.26337e-06
1.26337e-06
1.26337e-06
1.26341e-06
1.26336e-06
1.26339e-06
1.2655e-06
1.26621e-06
1.26603e-06
1.26511e-06
1.26344e-06
1.26337e-06
1.26341e-06
1.2634e-06
1.26341e-06
1.26337e-06
1.26344e-06
1.26521e-06
1.26541e-06
1.26628e-06
1.26596e-06
1.26538e-06
1.26508e-06
1.26344e-06
1.26336e-06
1.26342e-06
1.26336e-06
1.26344e-06
1.26518e-06
1.26537e-06
1.26542e-06
1.26615e-06
1.26535e-06
1.26506e-06
1.26339e-06
1.26336e-06
1.26339e-06
1.26521e-06
1.26537e-06
1.26549e-06
1.26627e-06
1.26613e-06
1.26537e-06
1.26549e-06
1.26549e-06
1.2655e-06
1.26541e-06
1.26542e-06
1.26627e-06
1.26621e-06
1.26631e-06
1.26617e-06
1.26621e-06
1.26628e-06
1.25532e-06
1.25433e-06
1.25426e-06
1.25431e-06
1.25528e-06
1.25534e-06
1.25536e-06
1.25449e-06
1.25401e-06
1.25247e-06
1.25246e-06
1.25247e-06
1.25416e-06
1.2545e-06
1.25531e-06
1.25449e-06
1.254e-06
1.25252e-06
1.25252e-06
1.25256e-06
1.25252e-06
1.25252e-06
1.25416e-06
1.25449e-06
1.25531e-06
1.25532e-06
1.25401e-06
1.25252e-06
1.25253e-06
1.25259e-06
1.25259e-06
1.25259e-06
1.25253e-06
1.25252e-06
1.25416e-06
1.25455e-06
1.25538e-06
1.25433e-06
1.25247e-06
1.25252e-06
1.25259e-06
1.25261e-06
1.25262e-06
1.25261e-06
1.25259e-06
1.25252e-06
1.25247e-06
1.25458e-06
1.25548e-06
1.25426e-06
1.25247e-06
1.25256e-06
1.25259e-06
1.25262e-06
1.25263e-06
1.25262e-06
1.25259e-06
1.25256e-06
1.25247e-06
1.25457e-06
1.25548e-06
1.25431e-06
1.25247e-06
1.25252e-06
1.25259e-06
1.25261e-06
1.25262e-06
1.25261e-06
1.25259e-06
1.25252e-06
1.25247e-06
1.25457e-06
1.25548e-06
1.25528e-06
1.25416e-06
1.25252e-06
1.25253e-06
1.25259e-06
1.25259e-06
1.25259e-06
1.25253e-06
1.25252e-06
1.25434e-06
1.25458e-06
1.25549e-06
1.25534e-06
1.2545e-06
1.25416e-06
1.25252e-06
1.25252e-06
1.25256e-06
1.25252e-06
1.25252e-06
1.25431e-06
1.2545e-06
1.25463e-06
1.25531e-06
1.25449e-06
1.25416e-06
1.25247e-06
1.25247e-06
1.25247e-06
1.25434e-06
1.2545e-06
1.25461e-06
1.25548e-06
1.25531e-06
1.25455e-06
1.25458e-06
1.25457e-06
1.25457e-06
1.25458e-06
1.25463e-06
1.25548e-06
1.25538e-06
1.25548e-06
1.25548e-06
1.25548e-06
1.25549e-06
1.24459e-06
1.24359e-06
1.24352e-06
1.24357e-06
1.24455e-06
1.24462e-06
1.24463e-06
1.24374e-06
1.24324e-06
1.24168e-06
1.24168e-06
1.24168e-06
1.24338e-06
1.24374e-06
1.24458e-06
1.24374e-06
1.24322e-06
1.24171e-06
1.24172e-06
1.24174e-06
1.24172e-06
1.24171e-06
1.24337e-06
1.24374e-06
1.24459e-06
1.24459e-06
1.24324e-06
1.24171e-06
1.24173e-06
1.24177e-06
1.24177e-06
1.24177e-06
1.24173e-06
1.24171e-06
1.24339e-06
1.24381e-06
1.24465e-06
1.24359e-06
1.24168e-06
1.24172e-06
1.24177e-06
1.24179e-06
1.24181e-06
1.24179e-06
1.24177e-06
1.24172e-06
1.24168e-06
1.24383e-06
1.24476e-06
1.24352e-06
1.24168e-06
1.24174e-06
1.24177e-06
1.24181e-06
1.24181e-06
1.24181e-06
1.24177e-06
1.24174e-06
1.24168e-06
1.24381e-06
1.24475e-06
1.24357e-06
1.24168e-06
1.24172e-06
1.24177e-06
1.24179e-06
1.24181e-06
1.24179e-06
1.24177e-06
1.24172e-06
1.24168e-06
1.24382e-06
1.24475e-06
1.24455e-06
1.24338e-06
1.24171e-06
1.24173e-06
1.24177e-06
1.24177e-06
1.24177e-06
1.24173e-06
1.24171e-06
1.24357e-06
1.24384e-06
1.24477e-06
1.24462e-06
1.24374e-06
1.24337e-06
1.24171e-06
1.24172e-06
1.24174e-06
1.24172e-06
1.24171e-06
1.24354e-06
1.24375e-06
1.2439e-06
1.24458e-06
1.24374e-06
1.24338e-06
1.24168e-06
1.24168e-06
1.24168e-06
1.24357e-06
1.24375e-06
1.24388e-06
1.24475e-06
1.24459e-06
1.24381e-06
1.24383e-06
1.24381e-06
1.24382e-06
1.24384e-06
1.2439e-06
1.24475e-06
1.24465e-06
1.24476e-06
1.24475e-06
1.24475e-06
1.24477e-06
1.23386e-06
1.23286e-06
1.23279e-06
1.23284e-06
1.23382e-06
1.23389e-06
1.2339e-06
1.233e-06
1.23249e-06
1.23092e-06
1.23093e-06
1.23092e-06
1.23264e-06
1.233e-06
1.23385e-06
1.233e-06
1.23247e-06
1.23094e-06
1.23095e-06
1.23096e-06
1.23095e-06
1.23094e-06
1.23262e-06
1.233e-06
1.23386e-06
1.23386e-06
1.23249e-06
1.23094e-06
1.23096e-06
1.23098e-06
1.23098e-06
1.23098e-06
1.23096e-06
1.23094e-06
1.23264e-06
1.23308e-06
1.23392e-06
1.23286e-06
1.23092e-06
1.23095e-06
1.23098e-06
1.23099e-06
1.231e-06
1.23099e-06
1.23098e-06
1.23095e-06
1.23092e-06
1.23309e-06
1.23403e-06
1.23279e-06
1.23093e-06
1.23096e-06
1.23098e-06
1.231e-06
1.23101e-06
1.231e-06
1.23098e-06
1.23096e-06
1.23093e-06
1.23307e-06
1.23402e-06
1.23284e-06
1.23092e-06
1.23095e-06
1.23098e-06
1.23099e-06
1.231e-06
1.23099e-06
1.23098e-06
1.23095e-06
1.23092e-06
1.23308e-06
1.23402e-06
1.23382e-06
1.23264e-06
1.23094e-06
1.23096e-06
1.23098e-06
1.23098e-06
1.23098e-06
1.23096e-06
1.23094e-06
1.23283e-06
1.2331e-06
1.23404e-06
1.23389e-06
1.233e-06
1.23262e-06
1.23094e-06
1.23095e-06
1.23096e-06
1.23095e-06
1.23094e-06
1.23279e-06
1.23301e-06
1.23317e-06
1.23385e-06
1.233e-06
1.23264e-06
1.23092e-06
1.23093e-06
1.23092e-06
1.23283e-06
1.23301e-06
1.23315e-06
1.23402e-06
1.23386e-06
1.23308e-06
1.23309e-06
1.23307e-06
1.23308e-06
1.2331e-06
1.23317e-06
1.23402e-06
1.23392e-06
1.23403e-06
1.23402e-06
1.23402e-06
1.23404e-06
1.22313e-06
1.22212e-06
1.22205e-06
1.2221e-06
1.22309e-06
1.22316e-06
1.22317e-06
1.22227e-06
1.22176e-06
1.22018e-06
1.22018e-06
1.22018e-06
1.2219e-06
1.22226e-06
1.22312e-06
1.22227e-06
1.22172e-06
1.22019e-06
1.22019e-06
1.2202e-06
1.22019e-06
1.22019e-06
1.22187e-06
1.22226e-06
1.22312e-06
1.22313e-06
1.22176e-06
1.22019e-06
1.2202e-06
1.22021e-06
1.22021e-06
1.22021e-06
1.2202e-06
1.22019e-06
1.2219e-06
1.22234e-06
1.22319e-06
1.22212e-06
1.22018e-06
1.22019e-06
1.22021e-06
1.22022e-06
1.22023e-06
1.22022e-06
1.22021e-06
1.22019e-06
1.22018e-06
1.22235e-06
1.2233e-06
1.22205e-06
1.22018e-06
1.2202e-06
1.22021e-06
1.22023e-06
1.22023e-06
1.22023e-06
1.22021e-06
1.2202e-06
1.22018e-06
1.22233e-06
1.22329e-06
1.2221e-06
1.22018e-06
1.22019e-06
1.22021e-06
1.22022e-06
1.22023e-06
1.22022e-06
1.22021e-06
1.22019e-06
1.22018e-06
1.22234e-06
1.22329e-06
1.22309e-06
1.2219e-06
1.22019e-06
1.2202e-06
1.22021e-06
1.22021e-06
1.22021e-06
1.2202e-06
1.22019e-06
1.22209e-06
1.22237e-06
1.2233e-06
1.22316e-06
1.22226e-06
1.22187e-06
1.22019e-06
1.22019e-06
1.2202e-06
1.22019e-06
1.22019e-06
1.22205e-06
1.22228e-06
1.22244e-06
1.22312e-06
1.22226e-06
1.2219e-06
1.22018e-06
1.22018e-06
1.22018e-06
1.22209e-06
1.22228e-06
1.22241e-06
1.22329e-06
1.22312e-06
1.22234e-06
1.22235e-06
1.22233e-06
1.22234e-06
1.22237e-06
1.22244e-06
1.22329e-06
1.22319e-06
1.2233e-06
1.22329e-06
1.22329e-06
1.2233e-06
1.21239e-06
1.21139e-06
1.21132e-06
1.21136e-06
1.21235e-06
1.21242e-06
1.21244e-06
1.21153e-06
1.21102e-06
1.20944e-06
1.20944e-06
1.20944e-06
1.21116e-06
1.21153e-06
1.21239e-06
1.21153e-06
1.21099e-06
1.20944e-06
1.20945e-06
1.20945e-06
1.20945e-06
1.20944e-06
1.21114e-06
1.21152e-06
1.21239e-06
1.21239e-06
1.21102e-06
1.20944e-06
1.20945e-06
1.20946e-06
1.20946e-06
1.20946e-06
1.20945e-06
1.20944e-06
1.21116e-06
1.21161e-06
1.21245e-06
1.21139e-06
1.20944e-06
1.20945e-06
1.20946e-06
1.20946e-06
1.20947e-06
1.20946e-06
1.20946e-06
1.20945e-06
1.20944e-06
1.21162e-06
1.21256e-06
1.21132e-06
1.20944e-06
1.20945e-06
1.20946e-06
1.20947e-06
1.20947e-06
1.20947e-06
1.20946e-06
1.20945e-06
1.20944e-06
1.21159e-06
1.21255e-06
1.21136e-06
1.20944e-06
1.20945e-06
1.20946e-06
1.20946e-06
1.20947e-06
1.20946e-06
1.20946e-06
1.20945e-06
1.20944e-06
1.2116e-06
1.21256e-06
1.21235e-06
1.21116e-06
1.20944e-06
1.20945e-06
1.20946e-06
1.20946e-06
1.20946e-06
1.20945e-06
1.20944e-06
1.21135e-06
1.21163e-06
1.21257e-06
1.21242e-06
1.21153e-06
1.21114e-06
1.20944e-06
1.20945e-06
1.20945e-06
1.20945e-06
1.20944e-06
1.21131e-06
1.21154e-06
1.21171e-06
1.21239e-06
1.21152e-06
1.21116e-06
1.20944e-06
1.20944e-06
1.20944e-06
1.21135e-06
1.21154e-06
1.21168e-06
1.21256e-06
1.21239e-06
1.21161e-06
1.21162e-06
1.21159e-06
1.2116e-06
1.21163e-06
1.21171e-06
1.21256e-06
1.21245e-06
1.21256e-06
1.21255e-06
1.21256e-06
1.21257e-06
1.20166e-06
1.20065e-06
1.20058e-06
1.20063e-06
1.20162e-06
1.20169e-06
1.2017e-06
1.2008e-06
1.20028e-06
1.1987e-06
1.1987e-06
1.1987e-06
1.20042e-06
1.20079e-06
1.20165e-06
1.2008e-06
1.20025e-06
1.19871e-06
1.19871e-06
1.19871e-06
1.19871e-06
1.19871e-06
1.2004e-06
1.20079e-06
1.20166e-06
1.20166e-06
1.20028e-06
1.19871e-06
1.19871e-06
1.19871e-06
1.19871e-06
1.19871e-06
1.19871e-06
1.19871e-06
1.20042e-06
1.20087e-06
1.20172e-06
1.20065e-06
1.1987e-06
1.19871e-06
1.19871e-06
1.19872e-06
1.19872e-06
1.19872e-06
1.19871e-06
1.19871e-06
1.1987e-06
1.20088e-06
1.20183e-06
1.20058e-06
1.1987e-06
1.19871e-06
1.19871e-06
1.19872e-06
1.19872e-06
1.19872e-06
1.19871e-06
1.19871e-06
1.1987e-06
1.20086e-06
1.20182e-06
1.20063e-06
1.1987e-06
1.19871e-06
1.19871e-06
1.19872e-06
1.19872e-06
1.19872e-06
1.19871e-06
1.19871e-06
1.1987e-06
1.20087e-06
1.20182e-06
1.20162e-06
1.20042e-06
1.19871e-06
1.19871e-06
1.19871e-06
1.19871e-06
1.19871e-06
1.19871e-06
1.19871e-06
1.20061e-06
1.2009e-06
1.20183e-06
1.20169e-06
1.20079e-06
1.2004e-06
1.19871e-06
1.19871e-06
1.19871e-06
1.19871e-06
1.19871e-06
1.20058e-06
1.20081e-06
1.20097e-06
1.20165e-06
1.20079e-06
1.20042e-06
1.1987e-06
1.1987e-06
1.1987e-06
1.20061e-06
1.20081e-06
1.20094e-06
1.20182e-06
1.20166e-06
1.20087e-06
1.20088e-06
1.20086e-06
1.20087e-06
1.2009e-06
1.20097e-06
1.20182e-06
1.20172e-06
1.20183e-06
1.20182e-06
1.20182e-06
1.20183e-06
1.19092e-06
1.18992e-06
1.18984e-06
1.18989e-06
1.19088e-06
1.19095e-06
1.19097e-06
1.19006e-06
1.18955e-06
1.18797e-06
1.18797e-06
1.18797e-06
1.18969e-06
1.19005e-06
1.19092e-06
1.19006e-06
1.18951e-06
1.18797e-06
1.18797e-06
1.18797e-06
1.18797e-06
1.18797e-06
1.18966e-06
1.19005e-06
1.19092e-06
1.19092e-06
1.18955e-06
1.18797e-06
1.18797e-06
1.18797e-06
1.18797e-06
1.18797e-06
1.18797e-06
1.18797e-06
1.18969e-06
1.19014e-06
1.19098e-06
1.18992e-06
1.18797e-06
1.18797e-06
1.18797e-06
1.18797e-06
1.18798e-06
1.18797e-06
1.18797e-06
1.18797e-06
1.18797e-06
1.19015e-06
1.19109e-06
1.18984e-06
1.18797e-06
1.18797e-06
1.18797e-06
1.18798e-06
1.18798e-06
1.18798e-06
1.18797e-06
1.18797e-06
1.18797e-06
1.19012e-06
1.19108e-06
1.18989e-06
1.18797e-06
1.18797e-06
1.18797e-06
1.18797e-06
1.18798e-06
1.18797e-06
1.18797e-06
1.18797e-06
1.18797e-06
1.19013e-06
1.19108e-06
1.19088e-06
1.18969e-06
1.18797e-06
1.18797e-06
1.18797e-06
1.18797e-06
1.18797e-06
1.18797e-06
1.18797e-06
1.18988e-06
1.19016e-06
1.1911e-06
1.19095e-06
1.19005e-06
1.18966e-06
1.18797e-06
1.18797e-06
1.18797e-06
1.18797e-06
1.18797e-06
1.18984e-06
1.19007e-06
1.19024e-06
1.19092e-06
1.19005e-06
1.18969e-06
1.18797e-06
1.18797e-06
1.18797e-06
1.18988e-06
1.19007e-06
1.19021e-06
1.19109e-06
1.19092e-06
1.19014e-06
1.19015e-06
1.19012e-06
1.19013e-06
1.19016e-06
1.19024e-06
1.19109e-06
1.19098e-06
1.19109e-06
1.19108e-06
1.19108e-06
1.1911e-06
1.18019e-06
1.17918e-06
1.17911e-06
1.17916e-06
1.18014e-06
1.18022e-06
1.18023e-06
1.17932e-06
1.17881e-06
1.17723e-06
1.17723e-06
1.17723e-06
1.17895e-06
1.17932e-06
1.18018e-06
1.17932e-06
1.17878e-06
1.17723e-06
1.17723e-06
1.17723e-06
1.17723e-06
1.17723e-06
1.17893e-06
1.17932e-06
1.18018e-06
1.18019e-06
1.17881e-06
1.17723e-06
1.17723e-06
1.17723e-06
1.17723e-06
1.17723e-06
1.17723e-06
1.17723e-06
1.17895e-06
1.1794e-06
1.18025e-06
1.17918e-06
1.17723e-06
1.17723e-06
1.17723e-06
1.17724e-06
1.17724e-06
1.17724e-06
1.17723e-06
1.17723e-06
1.17723e-06
1.17941e-06
1.18035e-06
1.17911e-06
1.17723e-06
1.17723e-06
1.17723e-06
1.17724e-06
1.17724e-06
1.17724e-06
1.17723e-06
1.17723e-06
1.17723e-06
1.17939e-06
1.18035e-06
1.17916e-06
1.17723e-06
1.17723e-06
1.17723e-06
1.17724e-06
1.17724e-06
1.17724e-06
1.17723e-06
1.17723e-06
1.17723e-06
1.1794e-06
1.18035e-06
1.18014e-06
1.17895e-06
1.17723e-06
1.17723e-06
1.17723e-06
1.17723e-06
1.17723e-06
1.17723e-06
1.17723e-06
1.17914e-06
1.17943e-06
1.18036e-06
1.18022e-06
1.17932e-06
1.17893e-06
1.17723e-06
1.17723e-06
1.17723e-06
1.17723e-06
1.17723e-06
1.17911e-06
1.17934e-06
1.1795e-06
1.18018e-06
1.17932e-06
1.17895e-06
1.17723e-06
1.17723e-06
1.17723e-06
1.17914e-06
1.17934e-06
1.17947e-06
1.18035e-06
1.18018e-06
1.1794e-06
1.17941e-06
1.17939e-06
1.1794e-06
1.17943e-06
1.1795e-06
1.18035e-06
1.18025e-06
1.18035e-06
1.18035e-06
1.18035e-06
1.18036e-06
1.16945e-06
1.16845e-06
1.16837e-06
1.16842e-06
1.16941e-06
1.16948e-06
1.1695e-06
1.16859e-06
1.16808e-06
1.1665e-06
1.1665e-06
1.1665e-06
1.16822e-06
1.16858e-06
1.16944e-06
1.16859e-06
1.16804e-06
1.1665e-06
1.1665e-06
1.1665e-06
1.1665e-06
1.1665e-06
1.16819e-06
1.16858e-06
1.16945e-06
1.16945e-06
1.16808e-06
1.1665e-06
1.1665e-06
1.1665e-06
1.1665e-06
1.1665e-06
1.1665e-06
1.1665e-06
1.16822e-06
1.16866e-06
1.16951e-06
1.16845e-06
1.1665e-06
1.1665e-06
1.1665e-06
1.1665e-06
1.1665e-06
1.1665e-06
1.1665e-06
1.1665e-06
1.1665e-06
1.16867e-06
1.16962e-06
1.16837e-06
1.1665e-06
1.1665e-06
1.1665e-06
1.1665e-06
1.1665e-06
1.1665e-06
1.1665e-06
1.1665e-06
1.1665e-06
1.16865e-06
1.16961e-06
1.16842e-06
1.1665e-06
1.1665e-06
1.1665e-06
1.1665e-06
1.1665e-06
1.1665e-06
1.1665e-06
1.1665e-06
1.1665e-06
1.16866e-06
1.16961e-06
1.16941e-06
1.16822e-06
1.1665e-06
1.1665e-06
1.1665e-06
1.1665e-06
1.1665e-06
1.1665e-06
1.1665e-06
1.16841e-06
1.16869e-06
1.16963e-06
1.16948e-06
1.16858e-06
1.16819e-06
1.1665e-06
1.1665e-06
1.1665e-06
1.1665e-06
1.1665e-06
1.16837e-06
1.1686e-06
1.16876e-06
1.16945e-06
1.16858e-06
1.16822e-06
1.1665e-06
1.1665e-06
1.1665e-06
1.16841e-06
1.1686e-06
1.16874e-06
1.16962e-06
1.16945e-06
1.16866e-06
1.16867e-06
1.16865e-06
1.16866e-06
1.16869e-06
1.16876e-06
1.16962e-06
1.16951e-06
1.16962e-06
1.16961e-06
1.16961e-06
1.16963e-06
1.15872e-06
1.15771e-06
1.15764e-06
1.15769e-06
1.15867e-06
1.15875e-06
1.15876e-06
1.15785e-06
1.15734e-06
1.15576e-06
1.15576e-06
1.15576e-06
1.15748e-06
1.15785e-06
1.15871e-06
1.15785e-06
1.15731e-06
1.15576e-06
1.15576e-06
1.15576e-06
1.15576e-06
1.15576e-06
1.15746e-06
1.15784e-06
1.15871e-06
1.15872e-06
1.15734e-06
1.15576e-06
1.15576e-06
1.15576e-06
1.15576e-06
1.15576e-06
1.15576e-06
1.15576e-06
1.15748e-06
1.15793e-06
1.15878e-06
1.15771e-06
1.15576e-06
1.15576e-06
1.15576e-06
1.15576e-06
1.15576e-06
1.15576e-06
1.15576e-06
1.15576e-06
1.15576e-06
1.15794e-06
1.15888e-06
1.15764e-06
1.15576e-06
1.15576e-06
1.15576e-06
1.15576e-06
1.15576e-06
1.15576e-06
1.15576e-06
1.15576e-06
1.15576e-06
1.15792e-06
1.15888e-06
1.15769e-06
1.15576e-06
1.15576e-06
1.15576e-06
1.15576e-06
1.15576e-06
1.15576e-06
1.15576e-06
1.15576e-06
1.15576e-06
1.15793e-06
1.15888e-06
1.15867e-06
1.15748e-06
1.15576e-06
1.15576e-06
1.15576e-06
1.15576e-06
1.15576e-06
1.15576e-06
1.15576e-06
1.15767e-06
1.15796e-06
1.15889e-06
1.15875e-06
1.15785e-06
1.15746e-06
1.15576e-06
1.15576e-06
1.15576e-06
1.15576e-06
1.15576e-06
1.15764e-06
1.15787e-06
1.15803e-06
1.15871e-06
1.15784e-06
1.15748e-06
1.15576e-06
1.15576e-06
1.15576e-06
1.15767e-06
1.15787e-06
1.158e-06
1.15888e-06
1.15871e-06
1.15793e-06
1.15794e-06
1.15792e-06
1.15793e-06
1.15796e-06
1.15803e-06
1.15888e-06
1.15878e-06
1.15888e-06
1.15888e-06
1.15888e-06
1.15889e-06
1.14798e-06
1.14698e-06
1.1469e-06
1.14695e-06
1.14794e-06
1.14801e-06
1.14803e-06
1.14712e-06
1.1466e-06
1.14502e-06
1.14502e-06
1.14502e-06
1.14675e-06
1.14711e-06
1.14797e-06
1.14712e-06
1.14657e-06
1.14502e-06
1.14502e-06
1.14502e-06
1.14502e-06
1.14502e-06
1.14672e-06
1.14711e-06
1.14798e-06
1.14798e-06
1.1466e-06
1.14502e-06
1.14502e-06
1.14502e-06
1.14502e-06
1.14502e-06
1.14502e-06
1.14502e-06
1.14674e-06
1.14719e-06
1.14804e-06
1.14698e-06
1.14502e-06
1.14502e-06
1.14502e-06
1.14502e-06
1.14502e-06
1.14502e-06
1.14502e-06
1.14502e-06
1.14502e-06
1.1472e-06
1.14815e-06
1.1469e-06
1.14502e-06
1.14502e-06
1.14502e-06
1.14502e-06
1.14503e-06
1.14502e-06
1.14502e-06
1.14502e-06
1.14502e-06
1.14718e-06
1.14814e-06
1.14695e-06
1.14502e-06
1.14502e-06
1.14502e-06
1.14502e-06
1.14502e-06
1.14502e-06
1.14502e-06
1.14502e-06
1.14502e-06
1.14719e-06
1.14814e-06
1.14794e-06
1.14675e-06
1.14502e-06
1.14502e-06
1.14502e-06
1.14502e-06
1.14502e-06
1.14502e-06
1.14502e-06
1.14694e-06
1.14722e-06
1.14816e-06
1.14801e-06
1.14711e-06
1.14672e-06
1.14502e-06
1.14502e-06
1.14502e-06
1.14502e-06
1.14502e-06
1.1469e-06
1.14713e-06
1.14729e-06
1.14797e-06
1.14711e-06
1.14674e-06
1.14502e-06
1.14502e-06
1.14502e-06
1.14694e-06
1.14713e-06
1.14727e-06
1.14815e-06
1.14798e-06
1.14719e-06
1.1472e-06
1.14718e-06
1.14719e-06
1.14722e-06
1.14729e-06
1.14815e-06
1.14804e-06
1.14815e-06
1.14814e-06
1.14814e-06
1.14816e-06
1.13725e-06
1.13624e-06
1.13617e-06
1.13622e-06
1.1372e-06
1.13728e-06
1.13729e-06
1.13638e-06
1.13587e-06
1.13429e-06
1.13429e-06
1.13429e-06
1.13601e-06
1.13638e-06
1.13724e-06
1.13638e-06
1.13584e-06
1.13429e-06
1.13429e-06
1.13429e-06
1.13429e-06
1.13429e-06
1.13598e-06
1.13637e-06
1.13724e-06
1.13725e-06
1.13587e-06
1.13429e-06
1.13429e-06
1.13429e-06
1.13429e-06
1.13429e-06
1.13429e-06
1.13429e-06
1.13601e-06
1.13646e-06
1.13731e-06
1.13624e-06
1.13429e-06
1.13429e-06
1.13429e-06
1.13429e-06
1.13429e-06
1.13429e-06
1.13429e-06
1.13429e-06
1.13429e-06
1.13647e-06
1.13741e-06
1.13617e-06
1.13429e-06
1.13429e-06
1.13429e-06
1.13429e-06
1.13429e-06
1.13429e-06
1.13429e-06
1.13429e-06
1.13429e-06
1.13645e-06
1.13741e-06
1.13622e-06
1.13429e-06
1.13429e-06
1.13429e-06
1.13429e-06
1.13429e-06
1.13429e-06
1.13429e-06
1.13429e-06
1.13429e-06
1.13646e-06
1.13741e-06
1.1372e-06
1.13601e-06
1.13429e-06
1.13429e-06
1.13429e-06
1.13429e-06
1.13429e-06
1.13429e-06
1.13429e-06
1.1362e-06
1.13649e-06
1.13742e-06
1.13728e-06
1.13638e-06
1.13598e-06
1.13429e-06
1.13429e-06
1.13429e-06
1.13429e-06
1.13429e-06
1.13616e-06
1.13639e-06
1.13656e-06
1.13724e-06
1.13637e-06
1.13601e-06
1.13429e-06
1.13429e-06
1.13429e-06
1.1362e-06
1.13639e-06
1.13653e-06
1.13741e-06
1.13724e-06
1.13646e-06
1.13647e-06
1.13644e-06
1.13646e-06
1.13649e-06
1.13656e-06
1.13741e-06
1.13731e-06
1.13741e-06
1.13741e-06
1.13741e-06
1.13742e-06
1.12651e-06
1.1255e-06
1.12543e-06
1.12548e-06
1.12647e-06
1.12654e-06
1.12655e-06
1.12565e-06
1.12513e-06
1.12355e-06
1.12355e-06
1.12355e-06
1.12527e-06
1.12564e-06
1.1265e-06
1.12565e-06
1.1251e-06
1.12355e-06
1.12355e-06
1.12355e-06
1.12355e-06
1.12355e-06
1.12525e-06
1.12564e-06
1.12651e-06
1.12651e-06
1.12513e-06
1.12355e-06
1.12355e-06
1.12355e-06
1.12355e-06
1.12355e-06
1.12355e-06
1.12355e-06
1.12527e-06
1.12572e-06
1.12657e-06
1.1255e-06
1.12355e-06
1.12355e-06
1.12355e-06
1.12355e-06
1.12355e-06
1.12355e-06
1.12355e-06
1.12355e-06
1.12355e-06
1.12573e-06
1.12668e-06
1.12543e-06
1.12355e-06
1.12355e-06
1.12355e-06
1.12355e-06
1.12355e-06
1.12355e-06
1.12355e-06
1.12355e-06
1.12355e-06
1.12571e-06
1.12667e-06
1.12548e-06
1.12355e-06
1.12355e-06
1.12355e-06
1.12355e-06
1.12355e-06
1.12355e-06
1.12355e-06
1.12355e-06
1.12355e-06
1.12572e-06
1.12667e-06
1.12647e-06
1.12527e-06
1.12355e-06
1.12355e-06
1.12355e-06
1.12355e-06
1.12355e-06
1.12355e-06
1.12355e-06
1.12546e-06
1.12575e-06
1.12669e-06
1.12654e-06
1.12564e-06
1.12525e-06
1.12355e-06
1.12355e-06
1.12355e-06
1.12355e-06
1.12355e-06
1.12543e-06
1.12566e-06
1.12582e-06
1.1265e-06
1.12564e-06
1.12527e-06
1.12355e-06
1.12355e-06
1.12355e-06
1.12546e-06
1.12566e-06
1.1258e-06
1.12668e-06
1.12651e-06
1.12572e-06
1.12573e-06
1.12571e-06
1.12572e-06
1.12575e-06
1.12582e-06
1.12667e-06
1.12657e-06
1.12668e-06
1.12667e-06
1.12667e-06
1.12669e-06
1.11578e-06
1.11477e-06
1.11469e-06
1.11474e-06
1.11573e-06
1.11581e-06
1.11582e-06
1.11491e-06
1.1144e-06
1.11282e-06
1.11282e-06
1.11282e-06
1.11454e-06
1.11491e-06
1.11577e-06
1.11491e-06
1.11436e-06
1.11282e-06
1.11282e-06
1.11282e-06
1.11282e-06
1.11282e-06
1.11451e-06
1.1149e-06
1.11577e-06
1.11578e-06
1.1144e-06
1.11282e-06
1.11282e-06
1.11282e-06
1.11282e-06
1.11282e-06
1.11282e-06
1.11282e-06
1.11454e-06
1.11499e-06
1.11583e-06
1.11477e-06
1.11282e-06
1.11282e-06
1.11282e-06
1.11282e-06
1.11282e-06
1.11282e-06
1.11282e-06
1.11282e-06
1.11282e-06
1.115e-06
1.11594e-06
1.11469e-06
1.11282e-06
1.11282e-06
1.11282e-06
1.11282e-06
1.11282e-06
1.11282e-06
1.11282e-06
1.11282e-06
1.11282e-06
1.11497e-06
1.11593e-06
1.11474e-06
1.11282e-06
1.11282e-06
1.11282e-06
1.11282e-06
1.11282e-06
1.11282e-06
1.11282e-06
1.11282e-06
1.11282e-06
1.11498e-06
1.11594e-06
1.11573e-06
1.11454e-06
1.11282e-06
1.11282e-06
1.11282e-06
1.11282e-06
1.11282e-06
1.11282e-06
1.11282e-06
1.11473e-06
1.11501e-06
1.11595e-06
1.11581e-06
1.11491e-06
1.11451e-06
1.11282e-06
1.11282e-06
1.11282e-06
1.11282e-06
1.11282e-06
1.11469e-06
1.11492e-06
1.11509e-06
1.11577e-06
1.1149e-06
1.11454e-06
1.11282e-06
1.11282e-06
1.11282e-06
1.11473e-06
1.11492e-06
1.11506e-06
1.11594e-06
1.11577e-06
1.11499e-06
1.115e-06
1.11497e-06
1.11498e-06
1.11501e-06
1.11509e-06
1.11594e-06
1.11583e-06
1.11594e-06
1.11593e-06
1.11594e-06
1.11595e-06
1.10504e-06
1.10403e-06
1.10396e-06
1.10401e-06
1.105e-06
1.10507e-06
1.10508e-06
1.10417e-06
1.10366e-06
1.10208e-06
1.10208e-06
1.10208e-06
1.1038e-06
1.10417e-06
1.10503e-06
1.10417e-06
1.10363e-06
1.10208e-06
1.10208e-06
1.10208e-06
1.10208e-06
1.10208e-06
1.10378e-06
1.10417e-06
1.10504e-06
1.10504e-06
1.10366e-06
1.10208e-06
1.10208e-06
1.10208e-06
1.10208e-06
1.10208e-06
1.10208e-06
1.10208e-06
1.1038e-06
1.10425e-06
1.1051e-06
1.10403e-06
1.10208e-06
1.10208e-06
1.10208e-06
1.10208e-06
1.10208e-06
1.10208e-06
1.10208e-06
1.10208e-06
1.10208e-06
1.10426e-06
1.10521e-06
1.10396e-06
1.10208e-06
1.10208e-06
1.10208e-06
1.10208e-06
1.10208e-06
1.10208e-06
1.10208e-06
1.10208e-06
1.10208e-06
1.10424e-06
1.1052e-06
1.10401e-06
1.10208e-06
1.10208e-06
1.10208e-06
1.10208e-06
1.10208e-06
1.10208e-06
1.10208e-06
1.10208e-06
1.10208e-06
1.10425e-06
1.1052e-06
1.105e-06
1.1038e-06
1.10208e-06
1.10208e-06
1.10208e-06
1.10208e-06
1.10208e-06
1.10208e-06
1.10208e-06
1.10399e-06
1.10428e-06
1.10521e-06
1.10507e-06
1.10417e-06
1.10378e-06
1.10208e-06
1.10208e-06
1.10208e-06
1.10208e-06
1.10208e-06
1.10396e-06
1.10419e-06
1.10435e-06
1.10503e-06
1.10417e-06
1.1038e-06
1.10208e-06
1.10208e-06
1.10208e-06
1.10399e-06
1.10419e-06
1.10432e-06
1.1052e-06
1.10504e-06
1.10425e-06
1.10426e-06
1.10424e-06
1.10425e-06
1.10428e-06
1.10435e-06
1.1052e-06
1.1051e-06
1.10521e-06
1.1052e-06
1.1052e-06
1.10521e-06
1.0943e-06
1.0933e-06
1.09322e-06
1.09327e-06
1.09426e-06
1.09433e-06
1.09435e-06
1.09344e-06
1.09293e-06
1.09135e-06
1.09135e-06
1.09135e-06
1.09307e-06
1.09343e-06
1.0943e-06
1.09344e-06
1.09289e-06
1.09135e-06
1.09135e-06
1.09135e-06
1.09135e-06
1.09135e-06
1.09304e-06
1.09343e-06
1.0943e-06
1.0943e-06
1.09293e-06
1.09135e-06
1.09135e-06
1.09135e-06
1.09135e-06
1.09135e-06
1.09135e-06
1.09135e-06
1.09307e-06
1.09352e-06
1.09436e-06
1.0933e-06
1.09135e-06
1.09135e-06
1.09135e-06
1.09135e-06
1.09135e-06
1.09135e-06
1.09135e-06
1.09135e-06
1.09135e-06
1.09353e-06
1.09447e-06
1.09322e-06
1.09135e-06
1.09135e-06
1.09135e-06
1.09135e-06
1.09135e-06
1.09135e-06
1.09135e-06
1.09135e-06
1.09135e-06
1.0935e-06
1.09446e-06
1.09327e-06
1.09135e-06
1.09135e-06
1.09135e-06
1.09135e-06
1.09135e-06
1.09135e-06
1.09135e-06
1.09135e-06
1.09135e-06
1.09351e-06
1.09446e-06
1.09426e-06
1.09307e-06
1.09135e-06
1.09135e-06
1.09135e-06
1.09135e-06
1.09135e-06
1.09135e-06
1.09135e-06
1.09326e-06
1.09354e-06
1.09448e-06
1.09433e-06
1.09343e-06
1.09304e-06
1.09135e-06
1.09135e-06
1.09135e-06
1.09135e-06
1.09135e-06
1.09322e-06
1.09345e-06
1.09362e-06
1.0943e-06
1.09343e-06
1.09307e-06
1.09135e-06
1.09135e-06
1.09135e-06
1.09326e-06
1.09345e-06
1.09359e-06
1.09447e-06
1.0943e-06
1.09352e-06
1.09353e-06
1.0935e-06
1.09351e-06
1.09354e-06
1.09362e-06
1.09447e-06
1.09436e-06
1.09447e-06
1.09446e-06
1.09446e-06
1.09448e-06
1.08357e-06
1.08256e-06
1.08249e-06
1.08254e-06
1.08352e-06
1.0836e-06
1.08361e-06
1.0827e-06
1.08219e-06
1.08061e-06
1.08061e-06
1.08061e-06
1.08233e-06
1.0827e-06
1.08356e-06
1.0827e-06
1.08216e-06
1.08061e-06
1.08061e-06
1.08061e-06
1.08061e-06
1.08061e-06
1.08231e-06
1.0827e-06
1.08356e-06
1.08357e-06
1.08219e-06
1.08061e-06
1.08061e-06
1.08061e-06
1.08061e-06
1.08061e-06
1.08061e-06
1.08061e-06
1.08233e-06
1.08278e-06
1.08363e-06
1.08256e-06
1.08061e-06
1.08061e-06
1.08061e-06
1.08061e-06
1.08061e-06
1.08061e-06
1.08061e-06
1.08061e-06
1.08061e-06
1.08279e-06
1.08373e-06
1.08249e-06
1.08061e-06
1.08061e-06
1.08061e-06
1.08061e-06
1.08061e-06
1.08061e-06
1.08061e-06
1.08061e-06
1.08061e-06
1.08277e-06
1.08373e-06
1.08254e-06
1.08061e-06
1.08061e-06
1.08061e-06
1.08061e-06
1.08061e-06
1.08061e-06
1.08061e-06
1.08061e-06
1.08061e-06
1.08278e-06
1.08373e-06
1.08352e-06
1.08233e-06
1.08061e-06
1.08061e-06
1.08061e-06
1.08061e-06
1.08061e-06
1.08061e-06
1.08061e-06
1.08252e-06
1.08281e-06
1.08374e-06
1.0836e-06
1.0827e-06
1.08231e-06
1.08061e-06
1.08061e-06
1.08061e-06
1.08061e-06
1.08061e-06
1.08249e-06
1.08272e-06
1.08288e-06
1.08356e-06
1.0827e-06
1.08233e-06
1.08061e-06
1.08061e-06
1.08061e-06
1.08252e-06
1.08272e-06
1.08285e-06
1.08373e-06
1.08356e-06
1.08278e-06
1.08279e-06
1.08277e-06
1.08278e-06
1.08281e-06
1.08288e-06
1.08373e-06
1.08363e-06
1.08373e-06
1.08373e-06
1.08373e-06
1.08374e-06
1.07283e-06
1.07183e-06
1.07175e-06
1.0718e-06
1.07279e-06
1.07286e-06
1.07288e-06
1.07197e-06
1.07145e-06
1.06987e-06
1.06987e-06
1.06987e-06
1.0716e-06
1.07196e-06
1.07282e-06
1.07197e-06
1.07142e-06
1.06987e-06
1.06988e-06
1.06987e-06
1.06988e-06
1.06987e-06
1.07157e-06
1.07196e-06
1.07283e-06
1.07283e-06
1.07145e-06
1.06987e-06
1.06987e-06
1.06987e-06
1.06987e-06
1.06987e-06
1.06987e-06
1.06987e-06
1.07159e-06
1.07204e-06
1.07289e-06
1.07183e-06
1.06987e-06
1.06988e-06
1.06987e-06
1.06988e-06
1.06987e-06
1.06988e-06
1.06987e-06
1.06988e-06
1.06987e-06
1.07205e-06
1.073e-06
1.07175e-06
1.06987e-06
1.06987e-06
1.06987e-06
1.06987e-06
1.06987e-06
1.06987e-06
1.06987e-06
1.06987e-06
1.06987e-06
1.07203e-06
1.07299e-06
1.0718e-06
1.06987e-06
1.06988e-06
1.06987e-06
1.06988e-06
1.06987e-06
1.06988e-06
1.06987e-06
1.06988e-06
1.06987e-06
1.07204e-06
1.07299e-06
1.07279e-06
1.0716e-06
1.06987e-06
1.06987e-06
1.06987e-06
1.06987e-06
1.06987e-06
1.06987e-06
1.06987e-06
1.07179e-06
1.07207e-06
1.07301e-06
1.07286e-06
1.07196e-06
1.07157e-06
1.06987e-06
1.06988e-06
1.06987e-06
1.06988e-06
1.06987e-06
1.07175e-06
1.07198e-06
1.07214e-06
1.07282e-06
1.07196e-06
1.07159e-06
1.06987e-06
1.06987e-06
1.06987e-06
1.07179e-06
1.07198e-06
1.07212e-06
1.073e-06
1.07283e-06
1.07204e-06
1.07205e-06
1.07203e-06
1.07204e-06
1.07207e-06
1.07214e-06
1.073e-06
1.07289e-06
1.073e-06
1.07299e-06
1.07299e-06
1.07301e-06
1.0621e-06
1.06109e-06
1.06102e-06
1.06107e-06
1.06205e-06
1.06213e-06
1.06214e-06
1.06123e-06
1.06072e-06
1.05914e-06
1.05914e-06
1.05914e-06
1.06086e-06
1.06123e-06
1.06209e-06
1.06123e-06
1.06069e-06
1.05914e-06
1.05914e-06
1.05914e-06
1.05914e-06
1.05914e-06
1.06084e-06
1.06122e-06
1.06209e-06
1.0621e-06
1.06072e-06
1.05914e-06
1.05914e-06
1.05914e-06
1.05914e-06
1.05914e-06
1.05914e-06
1.05914e-06
1.06086e-06
1.06131e-06
1.06216e-06
1.06109e-06
1.05914e-06
1.05914e-06
1.05914e-06
1.05914e-06
1.05914e-06
1.05914e-06
1.05914e-06
1.05914e-06
1.05914e-06
1.06132e-06
1.06226e-06
1.06102e-06
1.05914e-06
1.05914e-06
1.05914e-06
1.05914e-06
1.05914e-06
1.05914e-06
1.05914e-06
1.05914e-06
1.05914e-06
1.0613e-06
1.06226e-06
1.06107e-06
1.05914e-06
1.05914e-06
1.05914e-06
1.05914e-06
1.05914e-06