/*--------------------------------*- C++ -*----------------------------------*\
| =========                 |                                                 |
| \\      /  F ield         | OpenFOAM: The Open Source CFD Toolbox           |
|  \\    /   O peration     | Version:  v2012                                 |
|   \\  /    A nd           | Website:  www.openfoam.com                      |
|    \\/     M anipulation  |                                                 |
\*---------------------------------------------------------------------------*/
FoamFile
{
    version     2.0;
    format      ascii;
    class       volScalarField;
    location    "84";
    object      p;
}
// * * * * * * * * * * * * * * * * * * * * * * * * * * * * * * * * * * * * * //

dimensions      [0 2 -2 0 0 0 0];


internalField   nonuniform List<scalar> 
292667
(
9.9408e-07
9.85327e-07
9.84701e-07
9.84755e-07
9.85586e-07
9.94903e-07
9.85529e-07
9.83406e-07
9.82148e-07
9.81629e-07
9.81695e-07
9.82368e-07
9.83808e-07
9.86105e-07
9.85528e-07
9.82793e-07
9.81059e-07
9.80097e-07
9.7969e-07
9.79744e-07
9.80268e-07
9.81382e-07
9.83325e-07
9.86243e-07
9.94081e-07
9.83406e-07
9.81058e-07
9.79647e-07
9.78857e-07
9.78518e-07
9.78564e-07
9.79002e-07
9.79919e-07
9.81517e-07
9.84131e-07
9.93474e-07
9.85327e-07
9.82148e-07
9.80097e-07
9.78857e-07
9.78154e-07
9.77849e-07
9.77891e-07
9.78286e-07
9.79103e-07
9.80509e-07
9.82824e-07
9.88535e-07
9.84701e-07
9.81628e-07
9.7969e-07
9.78518e-07
9.77849e-07
9.77559e-07
9.77599e-07
9.77977e-07
9.78755e-07
9.80087e-07
9.82284e-07
9.87069e-07
9.84755e-07
9.81694e-07
9.79744e-07
9.78564e-07
9.77891e-07
9.77599e-07
9.7764e-07
9.7802e-07
9.78804e-07
9.80146e-07
9.82362e-07
9.87359e-07
9.85586e-07
9.82368e-07
9.80268e-07
9.79002e-07
9.78286e-07
9.77976e-07
9.7802e-07
9.78423e-07
9.79259e-07
9.80702e-07
9.83079e-07
9.88813e-07
9.94903e-07
9.83808e-07
9.81382e-07
9.79919e-07
9.79103e-07
9.78755e-07
9.78803e-07
9.79259e-07
9.80216e-07
9.81885e-07
9.8459e-07
9.93304e-07
9.86105e-07
9.83325e-07
9.81517e-07
9.80509e-07
9.80086e-07
9.80146e-07
9.80702e-07
9.81885e-07
9.83934e-07
9.89479e-07
9.86243e-07
9.84131e-07
9.82823e-07
9.82283e-07
9.82361e-07
9.83079e-07
9.84589e-07
9.89478e-07
9.93474e-07
9.88535e-07
9.87069e-07
9.87359e-07
9.88813e-07
9.93304e-07
9.71264e-07
9.70714e-07
9.70665e-07
9.70728e-07
9.71316e-07
9.71165e-07
9.71278e-07
9.70851e-07
9.70544e-07
9.69514e-07
9.69496e-07
9.69513e-07
9.70704e-07
9.70918e-07
9.71345e-07
9.70851e-07
9.7052e-07
9.69545e-07
9.69507e-07
9.69541e-07
9.69507e-07
9.69545e-07
9.7069e-07
9.70911e-07
9.71335e-07
9.71264e-07
9.70544e-07
9.69545e-07
9.69489e-07
9.69507e-07
9.69486e-07
9.69508e-07
9.69489e-07
9.69545e-07
9.70696e-07
9.70949e-07
9.71343e-07
9.70714e-07
9.69514e-07
9.69508e-07
9.69508e-07
9.69466e-07
9.69471e-07
9.69466e-07
9.69508e-07
9.69507e-07
9.69514e-07
9.71115e-07
9.7153e-07
9.70666e-07
9.69496e-07
9.69541e-07
9.69486e-07
9.69471e-07
9.69459e-07
9.69471e-07
9.69486e-07
9.69541e-07
9.69496e-07
9.71133e-07
9.71478e-07
9.70728e-07
9.69513e-07
9.69507e-07
9.69508e-07
9.69466e-07
9.69471e-07
9.69466e-07
9.69507e-07
9.69507e-07
9.69513e-07
9.71127e-07
9.71496e-07
9.71316e-07
9.70704e-07
9.69545e-07
9.69489e-07
9.69508e-07
9.69486e-07
9.69508e-07
9.69488e-07
9.69545e-07
9.70903e-07
9.71018e-07
9.71484e-07
9.71165e-07
9.70918e-07
9.7069e-07
9.69545e-07
9.69507e-07
9.69541e-07
9.69507e-07
9.69545e-07
9.70872e-07
9.70985e-07
9.70973e-07
9.71345e-07
9.70911e-07
9.70696e-07
9.69514e-07
9.69496e-07
9.69513e-07
9.70903e-07
9.70985e-07
9.71004e-07
9.71433e-07
9.71335e-07
9.70949e-07
9.71115e-07
9.71133e-07
9.71127e-07
9.71018e-07
9.70973e-07
9.71434e-07
9.71343e-07
9.7153e-07
9.71478e-07
9.71496e-07
9.71484e-07
9.62996e-07
9.62366e-07
9.62314e-07
9.62359e-07
9.63024e-07
9.63026e-07
9.63001e-07
9.62457e-07
9.62094e-07
9.61113e-07
9.61112e-07
9.61113e-07
9.62252e-07
9.62497e-07
9.63026e-07
9.62457e-07
9.6207e-07
9.61149e-07
9.61156e-07
9.61185e-07
9.61156e-07
9.61149e-07
9.62248e-07
9.62497e-07
9.63027e-07
9.62996e-07
9.62095e-07
9.61149e-07
9.61169e-07
9.61207e-07
9.61203e-07
9.61207e-07
9.61169e-07
9.61149e-07
9.62262e-07
9.62565e-07
9.63036e-07
9.62366e-07
9.61113e-07
9.61157e-07
9.61208e-07
9.61213e-07
9.61232e-07
9.61213e-07
9.61208e-07
9.61156e-07
9.61113e-07
9.62648e-07
9.63196e-07
9.62314e-07
9.61112e-07
9.61185e-07
9.61203e-07
9.61232e-07
9.61233e-07
9.61233e-07
9.61203e-07
9.61185e-07
9.61112e-07
9.62656e-07
9.63223e-07
9.62359e-07
9.61113e-07
9.61156e-07
9.61207e-07
9.61213e-07
9.61232e-07
9.61213e-07
9.61207e-07
9.61156e-07
9.61113e-07
9.62652e-07
9.63223e-07
9.63024e-07
9.62252e-07
9.61149e-07
9.61169e-07
9.61208e-07
9.61203e-07
9.61208e-07
9.61169e-07
9.61149e-07
9.62479e-07
9.62622e-07
9.6318e-07
9.63026e-07
9.62497e-07
9.62248e-07
9.61149e-07
9.61157e-07
9.61185e-07
9.61157e-07
9.61149e-07
9.62459e-07
9.62563e-07
9.62639e-07
9.63026e-07
9.62497e-07
9.62262e-07
9.61113e-07
9.61112e-07
9.61113e-07
9.62479e-07
9.62563e-07
9.62622e-07
9.63155e-07
9.63027e-07
9.62565e-07
9.62648e-07
9.62656e-07
9.62652e-07
9.62622e-07
9.62639e-07
9.63155e-07
9.63036e-07
9.63197e-07
9.63223e-07
9.63223e-07
9.63181e-07
9.54757e-07
9.54118e-07
9.54061e-07
9.54107e-07
9.54783e-07
9.54789e-07
9.54763e-07
9.54205e-07
9.53824e-07
9.52826e-07
9.52828e-07
9.52826e-07
9.53976e-07
9.54235e-07
9.54787e-07
9.54205e-07
9.53792e-07
9.52846e-07
9.5286e-07
9.52874e-07
9.5286e-07
9.52846e-07
9.53962e-07
9.54233e-07
9.5479e-07
9.54757e-07
9.53824e-07
9.52846e-07
9.52869e-07
9.52896e-07
9.52897e-07
9.52896e-07
9.52869e-07
9.52846e-07
9.53982e-07
9.54314e-07
9.54798e-07
9.54118e-07
9.52826e-07
9.52861e-07
9.52897e-07
9.5291e-07
9.52924e-07
9.5291e-07
9.52897e-07
9.52861e-07
9.52826e-07
9.54389e-07
9.54958e-07
9.54061e-07
9.52828e-07
9.52874e-07
9.52897e-07
9.52924e-07
9.52926e-07
9.52924e-07
9.52897e-07
9.52874e-07
9.52828e-07
9.54389e-07
9.54982e-07
9.54108e-07
9.52826e-07
9.5286e-07
9.52896e-07
9.52911e-07
9.52924e-07
9.5291e-07
9.52896e-07
9.5286e-07
9.52826e-07
9.54388e-07
9.54982e-07
9.54783e-07
9.53976e-07
9.52846e-07
9.52869e-07
9.52897e-07
9.52897e-07
9.52897e-07
9.52869e-07
9.52846e-07
9.54201e-07
9.54369e-07
9.54942e-07
9.54789e-07
9.54235e-07
9.53962e-07
9.52846e-07
9.52861e-07
9.52874e-07
9.52861e-07
9.52846e-07
9.54175e-07
9.54296e-07
9.54397e-07
9.54787e-07
9.54233e-07
9.53982e-07
9.52826e-07
9.52828e-07
9.52826e-07
9.54201e-07
9.54297e-07
9.54375e-07
9.54919e-07
9.5479e-07
9.54314e-07
9.54389e-07
9.54389e-07
9.54388e-07
9.54369e-07
9.54397e-07
9.54919e-07
9.54798e-07
9.54958e-07
9.54982e-07
9.54982e-07
9.54942e-07
9.46518e-07
9.45875e-07
9.45818e-07
9.45864e-07
9.46544e-07
9.46551e-07
9.46525e-07
9.45962e-07
9.45575e-07
9.44568e-07
9.44569e-07
9.44568e-07
9.45725e-07
9.45989e-07
9.46549e-07
9.45962e-07
9.45539e-07
9.44578e-07
9.44588e-07
9.44594e-07
9.44588e-07
9.44578e-07
9.45706e-07
9.45987e-07
9.46552e-07
9.46518e-07
9.45575e-07
9.44578e-07
9.44593e-07
9.44609e-07
9.44611e-07
9.44609e-07
9.44593e-07
9.44578e-07
9.45729e-07
9.46072e-07
9.46559e-07
9.45875e-07
9.44568e-07
9.44589e-07
9.4461e-07
9.44622e-07
9.44629e-07
9.44622e-07
9.4461e-07
9.44589e-07
9.44567e-07
9.46144e-07
9.4672e-07
9.45818e-07
9.44569e-07
9.44594e-07
9.44611e-07
9.44629e-07
9.44632e-07
9.44629e-07
9.44611e-07
9.44594e-07
9.44569e-07
9.46142e-07
9.46743e-07
9.45864e-07
9.44568e-07
9.44588e-07
9.44609e-07
9.44622e-07
9.44629e-07
9.44622e-07
9.44609e-07
9.44588e-07
9.44567e-07
9.46142e-07
9.46742e-07
9.46544e-07
9.45725e-07
9.44578e-07
9.44593e-07
9.4461e-07
9.44611e-07
9.4461e-07
9.44593e-07
9.44578e-07
9.45949e-07
9.46127e-07
9.46703e-07
9.46551e-07
9.45989e-07
9.45706e-07
9.44578e-07
9.44589e-07
9.44594e-07
9.44589e-07
9.44578e-07
9.45919e-07
9.46049e-07
9.46158e-07
9.46549e-07
9.45987e-07
9.45729e-07
9.44568e-07
9.44569e-07
9.44567e-07
9.45949e-07
9.46049e-07
9.46134e-07
9.46682e-07
9.46552e-07
9.46072e-07
9.46144e-07
9.46142e-07
9.46142e-07
9.46127e-07
9.46158e-07
9.46682e-07
9.46559e-07
9.4672e-07
9.46743e-07
9.46742e-07
9.46703e-07
9.38277e-07
9.37633e-07
9.37575e-07
9.37622e-07
9.38303e-07
9.3831e-07
9.38284e-07
9.3772e-07
9.37329e-07
9.36318e-07
9.3632e-07
9.36318e-07
9.3748e-07
9.37746e-07
9.38309e-07
9.3772e-07
9.37292e-07
9.36323e-07
9.3633e-07
9.36333e-07
9.3633e-07
9.36323e-07
9.37459e-07
9.37744e-07
9.38312e-07
9.38277e-07
9.3733e-07
9.36324e-07
9.36333e-07
9.36342e-07
9.36343e-07
9.36342e-07
9.36333e-07
9.36323e-07
9.37484e-07
9.3783e-07
9.38319e-07
9.37633e-07
9.36318e-07
9.36331e-07
9.36342e-07
9.3635e-07
9.36354e-07
9.3635e-07
9.36342e-07
9.3633e-07
9.36318e-07
9.37902e-07
9.38479e-07
9.37575e-07
9.3632e-07
9.36333e-07
9.36343e-07
9.36354e-07
9.36356e-07
9.36354e-07
9.36343e-07
9.36333e-07
9.3632e-07
9.37898e-07
9.38502e-07
9.37622e-07
9.36318e-07
9.3633e-07
9.36342e-07
9.3635e-07
9.36354e-07
9.3635e-07
9.36342e-07
9.3633e-07
9.36318e-07
9.37898e-07
9.38501e-07
9.38303e-07
9.3748e-07
9.36323e-07
9.36333e-07
9.36342e-07
9.36343e-07
9.36342e-07
9.36333e-07
9.36323e-07
9.37703e-07
9.37885e-07
9.38462e-07
9.3831e-07
9.37746e-07
9.37459e-07
9.36323e-07
9.36331e-07
9.36333e-07
9.36331e-07
9.36323e-07
9.37671e-07
9.37806e-07
9.37917e-07
9.38309e-07
9.37744e-07
9.37484e-07
9.36318e-07
9.3632e-07
9.36318e-07
9.37703e-07
9.37806e-07
9.37893e-07
9.38442e-07
9.38312e-07
9.3783e-07
9.37902e-07
9.37898e-07
9.37898e-07
9.37885e-07
9.37917e-07
9.38442e-07
9.38319e-07
9.38479e-07
9.38502e-07
9.38501e-07
9.38462e-07
9.30035e-07
9.2939e-07
9.29332e-07
9.29379e-07
9.30061e-07
9.30068e-07
9.30043e-07
9.29478e-07
9.29086e-07
9.28072e-07
9.28074e-07
9.28072e-07
9.29237e-07
9.29504e-07
9.30067e-07
9.29478e-07
9.29048e-07
9.28075e-07
9.2808e-07
9.28081e-07
9.2808e-07
9.28075e-07
9.29215e-07
9.29501e-07
9.3007e-07
9.30035e-07
9.29086e-07
9.28075e-07
9.28081e-07
9.28085e-07
9.28087e-07
9.28085e-07
9.28081e-07
9.28075e-07
9.2924e-07
9.29588e-07
9.30077e-07
9.2939e-07
9.28073e-07
9.2808e-07
9.28086e-07
9.28091e-07
9.28093e-07
9.28091e-07
9.28086e-07
9.2808e-07
9.28072e-07
9.29659e-07
9.30237e-07
9.29332e-07
9.28074e-07
9.28081e-07
9.28087e-07
9.28093e-07
9.28094e-07
9.28093e-07
9.28087e-07
9.28081e-07
9.28074e-07
9.29655e-07
9.3026e-07
9.29379e-07
9.28072e-07
9.2808e-07
9.28086e-07
9.28091e-07
9.28093e-07
9.28091e-07
9.28086e-07
9.2808e-07
9.28072e-07
9.29655e-07
9.30259e-07
9.30061e-07
9.29237e-07
9.28075e-07
9.28081e-07
9.28086e-07
9.28087e-07
9.28086e-07
9.28081e-07
9.28075e-07
9.29459e-07
9.29643e-07
9.3022e-07
9.30068e-07
9.29504e-07
9.29215e-07
9.28075e-07
9.2808e-07
9.28081e-07
9.2808e-07
9.28075e-07
9.29427e-07
9.29563e-07
9.29676e-07
9.30067e-07
9.29501e-07
9.2924e-07
9.28073e-07
9.28074e-07
9.28073e-07
9.29459e-07
9.29563e-07
9.29652e-07
9.302e-07
9.3007e-07
9.29588e-07
9.29659e-07
9.29655e-07
9.29655e-07
9.29643e-07
9.29676e-07
9.302e-07
9.30077e-07
9.30237e-07
9.3026e-07
9.30259e-07
9.3022e-07
9.21793e-07
9.21147e-07
9.21089e-07
9.21136e-07
9.21819e-07
9.21826e-07
9.218e-07
9.21235e-07
9.20843e-07
9.19828e-07
9.19829e-07
9.19828e-07
9.20994e-07
9.21261e-07
9.21825e-07
9.21235e-07
9.20804e-07
9.1983e-07
9.19833e-07
9.19833e-07
9.19833e-07
9.1983e-07
9.20971e-07
9.21259e-07
9.21828e-07
9.21793e-07
9.20843e-07
9.1983e-07
9.19834e-07
9.19836e-07
9.19837e-07
9.19836e-07
9.19834e-07
9.1983e-07
9.20997e-07
9.21346e-07
9.21835e-07
9.21147e-07
9.19828e-07
9.19833e-07
9.19836e-07
9.19839e-07
9.1984e-07
9.19839e-07
9.19836e-07
9.19833e-07
9.19828e-07
9.21417e-07
9.21995e-07
9.21089e-07
9.19829e-07
9.19833e-07
9.19837e-07
9.1984e-07
9.19841e-07
9.1984e-07
9.19837e-07
9.19833e-07
9.19829e-07
9.21413e-07
9.22017e-07
9.21136e-07
9.19828e-07
9.19833e-07
9.19836e-07
9.19839e-07
9.1984e-07
9.19839e-07
9.19836e-07
9.19833e-07
9.19828e-07
9.21413e-07
9.22017e-07
9.21819e-07
9.20994e-07
9.1983e-07
9.19834e-07
9.19836e-07
9.19837e-07
9.19836e-07
9.19834e-07
9.1983e-07
9.21216e-07
9.21401e-07
9.21978e-07
9.21826e-07
9.21261e-07
9.20971e-07
9.1983e-07
9.19833e-07
9.19833e-07
9.19833e-07
9.1983e-07
9.21183e-07
9.21321e-07
9.21434e-07
9.21825e-07
9.21259e-07
9.20997e-07
9.19828e-07
9.1983e-07
9.19828e-07
9.21216e-07
9.21321e-07
9.2141e-07
9.21958e-07
9.21828e-07
9.21346e-07
9.21417e-07
9.21413e-07
9.21412e-07
9.214e-07
9.21434e-07
9.21958e-07
9.21835e-07
9.21995e-07
9.22017e-07
9.22017e-07
9.21978e-07
9.1355e-07
9.12905e-07
9.12847e-07
9.12894e-07
9.13576e-07
9.13584e-07
9.13558e-07
9.12992e-07
9.126e-07
9.11585e-07
9.11586e-07
9.11585e-07
9.12751e-07
9.13019e-07
9.13583e-07
9.12993e-07
9.12561e-07
9.11586e-07
9.11588e-07
9.11588e-07
9.11588e-07
9.11586e-07
9.12728e-07
9.13016e-07
9.13586e-07
9.1355e-07
9.126e-07
9.11586e-07
9.11588e-07
9.11589e-07
9.1159e-07
9.11589e-07
9.11588e-07
9.11586e-07
9.12754e-07
9.13104e-07
9.13593e-07
9.12905e-07
9.11585e-07
9.11588e-07
9.11589e-07
9.11592e-07
9.11592e-07
9.11592e-07
9.11589e-07
9.11588e-07
9.11585e-07
9.13174e-07
9.13753e-07
9.12847e-07
9.11586e-07
9.11588e-07
9.1159e-07
9.11592e-07
9.11592e-07
9.11592e-07
9.1159e-07
9.11588e-07
9.11586e-07
9.1317e-07
9.13775e-07
9.12894e-07
9.11585e-07
9.11588e-07
9.11589e-07
9.11592e-07
9.11592e-07
9.11592e-07
9.11589e-07
9.11588e-07
9.11585e-07
9.1317e-07
9.13775e-07
9.13576e-07
9.12751e-07
9.11586e-07
9.11588e-07
9.11589e-07
9.1159e-07
9.11589e-07
9.11588e-07
9.11586e-07
9.12973e-07
9.13158e-07
9.13736e-07
9.13584e-07
9.13019e-07
9.12728e-07
9.11586e-07
9.11588e-07
9.11588e-07
9.11588e-07
9.11586e-07
9.1294e-07
9.13078e-07
9.13191e-07
9.13583e-07
9.13016e-07
9.12754e-07
9.11585e-07
9.11586e-07
9.11585e-07
9.12973e-07
9.13078e-07
9.13167e-07
9.13716e-07
9.13586e-07
9.13104e-07
9.13174e-07
9.1317e-07
9.1317e-07
9.13158e-07
9.13191e-07
9.13716e-07
9.13593e-07
9.13753e-07
9.13775e-07
9.13775e-07
9.13736e-07
9.05308e-07
9.04662e-07
9.04604e-07
9.04651e-07
9.05334e-07
9.05341e-07
9.05316e-07
9.0475e-07
9.04357e-07
9.03342e-07
9.03343e-07
9.03342e-07
9.04508e-07
9.04776e-07
9.0534e-07
9.0475e-07
9.04318e-07
9.03343e-07
9.03344e-07
9.03344e-07
9.03344e-07
9.03343e-07
9.04485e-07
9.04773e-07
9.05343e-07
9.05308e-07
9.04357e-07
9.03343e-07
9.03344e-07
9.03344e-07
9.03345e-07
9.03344e-07
9.03344e-07
9.03343e-07
9.04511e-07
9.04861e-07
9.0535e-07
9.04662e-07
9.03342e-07
9.03344e-07
9.03344e-07
9.03346e-07
9.03346e-07
9.03346e-07
9.03344e-07
9.03344e-07
9.03342e-07
9.04931e-07
9.0551e-07
9.04604e-07
9.03343e-07
9.03344e-07
9.03345e-07
9.03346e-07
9.03346e-07
9.03346e-07
9.03345e-07
9.03344e-07
9.03343e-07
9.04927e-07
9.05532e-07
9.04651e-07
9.03342e-07
9.03344e-07
9.03344e-07
9.03346e-07
9.03346e-07
9.03346e-07
9.03344e-07
9.03344e-07
9.03342e-07
9.04927e-07
9.05532e-07
9.05334e-07
9.04508e-07
9.03343e-07
9.03344e-07
9.03344e-07
9.03345e-07
9.03344e-07
9.03344e-07
9.03343e-07
9.0473e-07
9.04915e-07
9.05493e-07
9.05341e-07
9.04776e-07
9.04485e-07
9.03343e-07
9.03344e-07
9.03344e-07
9.03344e-07
9.03343e-07
9.04697e-07
9.04835e-07
9.04948e-07
9.0534e-07
9.04773e-07
9.04511e-07
9.03342e-07
9.03343e-07
9.03342e-07
9.0473e-07
9.04835e-07
9.04924e-07
9.05473e-07
9.05343e-07
9.04861e-07
9.04931e-07
9.04927e-07
9.04927e-07
9.04915e-07
9.04949e-07
9.05473e-07
9.0535e-07
9.0551e-07
9.05532e-07
9.05532e-07
9.05493e-07
8.97065e-07
8.96419e-07
8.96361e-07
8.96408e-07
8.97091e-07
8.97099e-07
8.97073e-07
8.96507e-07
8.96114e-07
8.95099e-07
8.951e-07
8.95099e-07
8.96266e-07
8.96533e-07
8.97098e-07
8.96507e-07
8.96076e-07
8.95099e-07
8.95101e-07
8.951e-07
8.95101e-07
8.95099e-07
8.96243e-07
8.96531e-07
8.971e-07
8.97065e-07
8.96114e-07
8.95099e-07
8.95101e-07
8.951e-07
8.95101e-07
8.951e-07
8.95101e-07
8.95099e-07
8.96268e-07
8.96618e-07
8.97107e-07
8.96419e-07
8.95099e-07
8.95101e-07
8.951e-07
8.95102e-07
8.95101e-07
8.95102e-07
8.951e-07
8.95101e-07
8.95099e-07
8.96688e-07
8.97267e-07
8.96361e-07
8.951e-07
8.951e-07
8.95101e-07
8.95101e-07
8.95102e-07
8.95101e-07
8.95101e-07
8.951e-07
8.951e-07
8.96684e-07
8.97289e-07
8.96408e-07
8.95099e-07
8.95101e-07
8.951e-07
8.95102e-07
8.95101e-07
8.95102e-07
8.951e-07
8.95101e-07
8.95099e-07
8.96684e-07
8.97289e-07
8.97091e-07
8.96266e-07
8.95099e-07
8.95101e-07
8.951e-07
8.95101e-07
8.951e-07
8.95101e-07
8.95099e-07
8.96487e-07
8.96672e-07
8.9725e-07
8.97099e-07
8.96533e-07
8.96243e-07
8.95099e-07
8.95102e-07
8.951e-07
8.95101e-07
8.95099e-07
8.96454e-07
8.96592e-07
8.96706e-07
8.97098e-07
8.96531e-07
8.96268e-07
8.95099e-07
8.951e-07
8.95099e-07
8.96487e-07
8.96592e-07
8.96682e-07
8.97231e-07
8.971e-07
8.96618e-07
8.96688e-07
8.96684e-07
8.96684e-07
8.96672e-07
8.96706e-07
8.97231e-07
8.97107e-07
8.97267e-07
8.9729e-07
8.97289e-07
8.9725e-07
8.88823e-07
8.88177e-07
8.88119e-07
8.88166e-07
8.88849e-07
8.88856e-07
8.8883e-07
8.88265e-07
8.87871e-07
8.86856e-07
8.86857e-07
8.86856e-07
8.88023e-07
8.88291e-07
8.88855e-07
8.88265e-07
8.87833e-07
8.86857e-07
8.86859e-07
8.86857e-07
8.86859e-07
8.86857e-07
8.88e-07
8.88288e-07
8.88858e-07
8.88822e-07
8.87871e-07
8.86857e-07
8.86858e-07
8.86857e-07
8.86858e-07
8.86857e-07
8.86858e-07
8.86857e-07
8.88026e-07
8.88376e-07
8.88865e-07
8.88177e-07
8.86856e-07
8.86859e-07
8.86857e-07
8.86859e-07
8.86857e-07
8.86859e-07
8.86857e-07
8.86858e-07
8.86856e-07
8.88446e-07
8.89025e-07
8.88119e-07
8.86857e-07
8.86857e-07
8.86858e-07
8.86857e-07
8.86858e-07
8.86857e-07
8.86858e-07
8.86857e-07
8.86857e-07
8.88441e-07
8.89047e-07
8.88166e-07
8.86856e-07
8.86859e-07
8.86857e-07
8.86859e-07
8.86857e-07
8.86859e-07
8.86857e-07
8.86859e-07
8.86856e-07
8.88441e-07
8.89046e-07
8.88849e-07
8.88023e-07
8.86857e-07
8.86858e-07
8.86857e-07
8.86858e-07
8.86857e-07
8.86858e-07
8.86857e-07
8.88245e-07
8.8843e-07
8.89007e-07
8.88856e-07
8.88291e-07
8.88e-07
8.86857e-07
8.86859e-07
8.86857e-07
8.86859e-07
8.86857e-07
8.88212e-07
8.8835e-07
8.88463e-07
8.88855e-07
8.88288e-07
8.88026e-07
8.86856e-07
8.86857e-07
8.86856e-07
8.88245e-07
8.8835e-07
8.88439e-07
8.88988e-07
8.88858e-07
8.88376e-07
8.88446e-07
8.88441e-07
8.88441e-07
8.8843e-07
8.88463e-07
8.88988e-07
8.88865e-07
8.89025e-07
8.89047e-07
8.89046e-07
8.89008e-07
8.8058e-07
8.79934e-07
8.79876e-07
8.79923e-07
8.80606e-07
8.80613e-07
8.80588e-07
8.80022e-07
8.79629e-07
8.78613e-07
8.78614e-07
8.78613e-07
8.7978e-07
8.80048e-07
8.80612e-07
8.80022e-07
8.7959e-07
8.78614e-07
8.78616e-07
8.78614e-07
8.78616e-07
8.78614e-07
8.79757e-07
8.80045e-07
8.80615e-07
8.8058e-07
8.79629e-07
8.78614e-07
8.78615e-07
8.78614e-07
8.78615e-07
8.78614e-07
8.78615e-07
8.78614e-07
8.79783e-07
8.80133e-07
8.80622e-07
8.79934e-07
8.78613e-07
8.78616e-07
8.78614e-07
8.78616e-07
8.78615e-07
8.78616e-07
8.78614e-07
8.78616e-07
8.78613e-07
8.80203e-07
8.80782e-07
8.79876e-07
8.78614e-07
8.78614e-07
8.78615e-07
8.78614e-07
8.78615e-07
8.78614e-07
8.78615e-07
8.78614e-07
8.78614e-07
8.80199e-07
8.80804e-07
8.79923e-07
8.78613e-07
8.78616e-07
8.78614e-07
8.78616e-07
8.78614e-07
8.78616e-07
8.78614e-07
8.78616e-07
8.78613e-07
8.80199e-07
8.80804e-07
8.80606e-07
8.7978e-07
8.78614e-07
8.78615e-07
8.78614e-07
8.78615e-07
8.78614e-07
8.78615e-07
8.78614e-07
8.80002e-07
8.80187e-07
8.80765e-07
8.80613e-07
8.80048e-07
8.79757e-07
8.78614e-07
8.78616e-07
8.78614e-07
8.78616e-07
8.78614e-07
8.79969e-07
8.80107e-07
8.80221e-07
8.80612e-07
8.80045e-07
8.79783e-07
8.78613e-07
8.78614e-07
8.78613e-07
8.80002e-07
8.80107e-07
8.80196e-07
8.80745e-07
8.80615e-07
8.80133e-07
8.80203e-07
8.80199e-07
8.80199e-07
8.80187e-07
8.80221e-07
8.80745e-07
8.80622e-07
8.80782e-07
8.80804e-07
8.80804e-07
8.80765e-07
8.72337e-07
8.71691e-07
8.71633e-07
8.7168e-07
8.72363e-07
8.72371e-07
8.72345e-07
8.71779e-07
8.71386e-07
8.7037e-07
8.70371e-07
8.7037e-07
8.71537e-07
8.71805e-07
8.7237e-07
8.71779e-07
8.71347e-07
8.70371e-07
8.70373e-07
8.70371e-07
8.70373e-07
8.70371e-07
8.71514e-07
8.71803e-07
8.72373e-07
8.72337e-07
8.71386e-07
8.70371e-07
8.70372e-07
8.70371e-07
8.70372e-07
8.70371e-07
8.70372e-07
8.70371e-07
8.7154e-07
8.7189e-07
8.72379e-07
8.71691e-07
8.7037e-07
8.70373e-07
8.70371e-07
8.70373e-07
8.70372e-07
8.70373e-07
8.70371e-07
8.70373e-07
8.70371e-07
8.71961e-07
8.72539e-07
8.71633e-07
8.70371e-07
8.70371e-07
8.70372e-07
8.70372e-07
8.70372e-07
8.70372e-07
8.70372e-07
8.70372e-07
8.70371e-07
8.71956e-07
8.72562e-07
8.7168e-07
8.7037e-07
8.70373e-07
8.70371e-07
8.70373e-07
8.70372e-07
8.70373e-07
8.70371e-07
8.70373e-07
8.70371e-07
8.71956e-07
8.72561e-07
8.72363e-07
8.71537e-07
8.70371e-07
8.70372e-07
8.70371e-07
8.70372e-07
8.70371e-07
8.70372e-07
8.70371e-07
8.71759e-07
8.71944e-07
8.72522e-07
8.72371e-07
8.71805e-07
8.71514e-07
8.70371e-07
8.70373e-07
8.70372e-07
8.70373e-07
8.70371e-07
8.71726e-07
8.71864e-07
8.71978e-07
8.7237e-07
8.71803e-07
8.7154e-07
8.70371e-07
8.70371e-07
8.7037e-07
8.71759e-07
8.71864e-07
8.71954e-07
8.72503e-07
8.72373e-07
8.7189e-07
8.71961e-07
8.71956e-07
8.71956e-07
8.71944e-07
8.71978e-07
8.72503e-07
8.72379e-07
8.72539e-07
8.72562e-07
8.72561e-07
8.72522e-07
8.64094e-07
8.63448e-07
8.6339e-07
8.63438e-07
8.6412e-07
8.64128e-07
8.64102e-07
8.63536e-07
8.63143e-07
8.62128e-07
8.62129e-07
8.62128e-07
8.63295e-07
8.63562e-07
8.64127e-07
8.63536e-07
8.63105e-07
8.62128e-07
8.6213e-07
8.62129e-07
8.6213e-07
8.62128e-07
8.63272e-07
8.6356e-07
8.6413e-07
8.64094e-07
8.63143e-07
8.62128e-07
8.62129e-07
8.62128e-07
8.62129e-07
8.62128e-07
8.62129e-07
8.62128e-07
8.63298e-07
8.63647e-07
8.64136e-07
8.63448e-07
8.62128e-07
8.6213e-07
8.62128e-07
8.6213e-07
8.62129e-07
8.6213e-07
8.62128e-07
8.6213e-07
8.62128e-07
8.63718e-07
8.64297e-07
8.6339e-07
8.62129e-07
8.62129e-07
8.62129e-07
8.62129e-07
8.62129e-07
8.62129e-07
8.62129e-07
8.62129e-07
8.62129e-07
8.63713e-07
8.64319e-07
8.63438e-07
8.62128e-07
8.6213e-07
8.62128e-07
8.6213e-07
8.62129e-07
8.6213e-07
8.62128e-07
8.6213e-07
8.62128e-07
8.63713e-07
8.64318e-07
8.6412e-07
8.63295e-07
8.62128e-07
8.62129e-07
8.62128e-07
8.62129e-07
8.62128e-07
8.62129e-07
8.62128e-07
8.63517e-07
8.63702e-07
8.6428e-07
8.64128e-07
8.63563e-07
8.63272e-07
8.62128e-07
8.6213e-07
8.62129e-07
8.6213e-07
8.62128e-07
8.63484e-07
8.63622e-07
8.63735e-07
8.64127e-07
8.6356e-07
8.63297e-07
8.62128e-07
8.62129e-07
8.62128e-07
8.63517e-07
8.63622e-07
8.63711e-07
8.6426e-07
8.6413e-07
8.63647e-07
8.63718e-07
8.63713e-07
8.63713e-07
8.63702e-07
8.63735e-07
8.6426e-07
8.64136e-07
8.64296e-07
8.64319e-07
8.64318e-07
8.6428e-07
8.55852e-07
8.55206e-07
8.55148e-07
8.55195e-07
8.55878e-07
8.55885e-07
8.55859e-07
8.55294e-07
8.549e-07
8.53885e-07
8.53886e-07
8.53885e-07
8.55052e-07
8.5532e-07
8.55884e-07
8.55294e-07
8.54862e-07
8.53886e-07
8.53887e-07
8.53886e-07
8.53887e-07
8.53886e-07
8.55029e-07
8.55317e-07
8.55887e-07
8.55852e-07
8.54901e-07
8.53886e-07
8.53886e-07
8.53886e-07
8.53886e-07
8.53886e-07
8.53886e-07
8.53886e-07
8.55055e-07
8.55405e-07
8.55894e-07
8.55206e-07
8.53885e-07
8.53887e-07
8.53886e-07
8.53887e-07
8.53886e-07
8.53887e-07
8.53886e-07
8.53887e-07
8.53885e-07
8.55475e-07
8.56054e-07
8.55148e-07
8.53886e-07
8.53886e-07
8.53886e-07
8.53886e-07
8.53886e-07
8.53886e-07
8.53886e-07
8.53886e-07
8.53886e-07
8.55471e-07
8.56076e-07
8.55195e-07
8.53885e-07
8.53887e-07
8.53886e-07
8.53887e-07
8.53886e-07
8.53887e-07
8.53886e-07
8.53887e-07
8.53885e-07
8.55471e-07
8.56076e-07
8.55878e-07
8.55052e-07
8.53886e-07
8.53886e-07
8.53886e-07
8.53886e-07
8.53886e-07
8.53886e-07
8.53886e-07
8.55274e-07
8.55459e-07
8.56037e-07
8.55885e-07
8.5532e-07
8.55029e-07
8.53886e-07
8.53887e-07
8.53886e-07
8.53887e-07
8.53886e-07
8.55241e-07
8.55379e-07
8.55493e-07
8.55884e-07
8.55317e-07
8.55055e-07
8.53885e-07
8.53886e-07
8.53885e-07
8.55274e-07
8.55379e-07
8.55468e-07
8.56017e-07
8.55887e-07
8.55405e-07
8.55475e-07
8.55471e-07
8.55471e-07
8.55459e-07
8.55493e-07
8.56017e-07
8.55894e-07
8.56054e-07
8.56076e-07
8.56076e-07
8.56037e-07
8.47609e-07
8.46963e-07
8.46905e-07
8.46952e-07
8.47635e-07
8.47643e-07
8.47617e-07
8.47051e-07
8.46658e-07
8.45642e-07
8.45643e-07
8.45642e-07
8.46809e-07
8.47077e-07
8.47642e-07
8.47051e-07
8.46619e-07
8.45643e-07
8.45645e-07
8.45643e-07
8.45645e-07
8.45643e-07
8.46786e-07
8.47074e-07
8.47644e-07
8.47609e-07
8.46658e-07
8.45643e-07
8.45644e-07
8.45643e-07
8.45643e-07
8.45643e-07
8.45644e-07
8.45643e-07
8.46812e-07
8.47162e-07
8.47651e-07
8.46963e-07
8.45642e-07
8.45645e-07
8.45643e-07
8.45644e-07
8.45643e-07
8.45644e-07
8.45643e-07
8.45645e-07
8.45642e-07
8.47232e-07
8.47811e-07
8.46905e-07
8.45643e-07
8.45643e-07
8.45643e-07
8.45643e-07
8.45643e-07
8.45643e-07
8.45643e-07
8.45643e-07
8.45643e-07
8.47228e-07
8.47833e-07
8.46952e-07
8.45642e-07
8.45645e-07
8.45643e-07
8.45644e-07
8.45643e-07
8.45644e-07
8.45643e-07
8.45645e-07
8.45642e-07
8.47228e-07
8.47833e-07
8.47635e-07
8.46809e-07
8.45643e-07
8.45644e-07
8.45643e-07
8.45643e-07
8.45643e-07
8.45644e-07
8.45643e-07
8.47031e-07
8.47216e-07
8.47794e-07
8.47643e-07
8.47077e-07
8.46786e-07
8.45643e-07
8.45645e-07
8.45643e-07
8.45645e-07
8.45643e-07
8.46998e-07
8.47136e-07
8.4725e-07
8.47642e-07
8.47074e-07
8.46812e-07
8.45642e-07
8.45643e-07
8.45642e-07
8.47031e-07
8.47136e-07
8.47226e-07
8.47775e-07
8.47644e-07
8.47162e-07
8.47232e-07
8.47228e-07
8.47228e-07
8.47216e-07
8.4725e-07
8.47774e-07
8.47651e-07
8.47811e-07
8.47833e-07
8.47833e-07
8.47794e-07
8.39366e-07
8.38721e-07
8.38662e-07
8.3871e-07
8.39392e-07
8.394e-07
8.39374e-07
8.38808e-07
8.38415e-07
8.374e-07
8.37401e-07
8.374e-07
8.38567e-07
8.38834e-07
8.39399e-07
8.38808e-07
8.38377e-07
8.374e-07
8.37402e-07
8.37401e-07
8.37402e-07
8.374e-07
8.38544e-07
8.38832e-07
8.39402e-07
8.39366e-07
8.38415e-07
8.374e-07
8.37401e-07
8.374e-07
8.37401e-07
8.374e-07
8.37401e-07
8.374e-07
8.38569e-07
8.38919e-07
8.39408e-07
8.3872e-07
8.374e-07
8.37402e-07
8.374e-07
8.37402e-07
8.374e-07
8.37402e-07
8.374e-07
8.37402e-07
8.374e-07
8.3899e-07
8.39568e-07
8.38662e-07
8.374e-07
8.37401e-07
8.37401e-07
8.374e-07
8.37401e-07
8.374e-07
8.37401e-07
8.37401e-07
8.374e-07
8.38985e-07
8.39591e-07
8.38709e-07
8.374e-07
8.37402e-07
8.374e-07
8.37402e-07
8.374e-07
8.37402e-07
8.374e-07
8.37402e-07
8.374e-07
8.38985e-07
8.3959e-07
8.39392e-07
8.38567e-07
8.374e-07
8.37401e-07
8.374e-07
8.37401e-07
8.374e-07
8.37401e-07
8.374e-07
8.38788e-07
8.38974e-07
8.39551e-07
8.394e-07
8.38834e-07
8.38544e-07
8.374e-07
8.37402e-07
8.37401e-07
8.37402e-07
8.374e-07
8.38756e-07
8.38893e-07
8.39007e-07
8.39399e-07
8.38832e-07
8.38569e-07
8.374e-07
8.374e-07
8.374e-07
8.38788e-07
8.38893e-07
8.38983e-07
8.39532e-07
8.39402e-07
8.38919e-07
8.3899e-07
8.38985e-07
8.38985e-07
8.38973e-07
8.39007e-07
8.39532e-07
8.39408e-07
8.39568e-07
8.39591e-07
8.3959e-07
8.39551e-07
8.31124e-07
8.30478e-07
8.3042e-07
8.30467e-07
8.3115e-07
8.31157e-07
8.31131e-07
8.30566e-07
8.30172e-07
8.29157e-07
8.29158e-07
8.29157e-07
8.30324e-07
8.30592e-07
8.31156e-07
8.30566e-07
8.30134e-07
8.29157e-07
8.29159e-07
8.29158e-07
8.29159e-07
8.29157e-07
8.30301e-07
8.30589e-07
8.31159e-07
8.31123e-07
8.30172e-07
8.29157e-07
8.29158e-07
8.29157e-07
8.29158e-07
8.29157e-07
8.29158e-07
8.29157e-07
8.30327e-07
8.30677e-07
8.31166e-07
8.30478e-07
8.29157e-07
8.29159e-07
8.29157e-07
8.29159e-07
8.29158e-07
8.29159e-07
8.29157e-07
8.29159e-07
8.29157e-07
8.30747e-07
8.31326e-07
8.3042e-07
8.29158e-07
8.29158e-07
8.29158e-07
8.29158e-07
8.29158e-07
8.29158e-07
8.29158e-07
8.29158e-07
8.29158e-07
8.30743e-07
8.31348e-07
8.30467e-07
8.29157e-07
8.29159e-07
8.29157e-07
8.29159e-07
8.29158e-07
8.29159e-07
8.29157e-07
8.29159e-07
8.29157e-07
8.30742e-07
8.31347e-07
8.31149e-07
8.30324e-07
8.29157e-07
8.29158e-07
8.29157e-07
8.29158e-07
8.29157e-07
8.29158e-07
8.29157e-07
8.30546e-07
8.30731e-07
8.31309e-07
8.31157e-07
8.30592e-07
8.30301e-07
8.29157e-07
8.29159e-07
8.29158e-07
8.29159e-07
8.29157e-07
8.30513e-07
8.30651e-07
8.30764e-07
8.31156e-07
8.30589e-07
8.30327e-07
8.29157e-07
8.29158e-07
8.29157e-07
8.30546e-07
8.30651e-07
8.3074e-07
8.31289e-07
8.31159e-07
8.30677e-07
8.30747e-07
8.30742e-07
8.30742e-07
8.30731e-07
8.30764e-07
8.31289e-07
8.31166e-07
8.31326e-07
8.31348e-07
8.31347e-07
8.31309e-07
8.22881e-07
8.22235e-07
8.22177e-07
8.22224e-07
8.22907e-07
8.22914e-07
8.22889e-07
8.22323e-07
8.2193e-07
8.20914e-07
8.20915e-07
8.20914e-07
8.22081e-07
8.22349e-07
8.22913e-07
8.22323e-07
8.21891e-07
8.20915e-07
8.20916e-07
8.20915e-07
8.20917e-07
8.20915e-07
8.22058e-07
8.22346e-07
8.22916e-07
8.22881e-07
8.2193e-07
8.20915e-07
8.20916e-07
8.20915e-07
8.20915e-07
8.20915e-07
8.20916e-07
8.20915e-07
8.22084e-07
8.22434e-07
8.22923e-07
8.22235e-07
8.20914e-07
8.20916e-07
8.20915e-07
8.20916e-07
8.20915e-07
8.20916e-07
8.20915e-07
8.20917e-07
8.20914e-07
8.22504e-07
8.23083e-07
8.22177e-07
8.20915e-07
8.20915e-07
8.20915e-07
8.20915e-07
8.20915e-07
8.20915e-07
8.20915e-07
8.20915e-07
8.20915e-07
8.225e-07
8.23105e-07
8.22224e-07
8.20914e-07
8.20916e-07
8.20915e-07
8.20916e-07
8.20915e-07
8.20916e-07
8.20915e-07
8.20917e-07
8.20914e-07
8.225e-07
8.23105e-07
8.22907e-07
8.22081e-07
8.20915e-07
8.20916e-07
8.20915e-07
8.20915e-07
8.20915e-07
8.20916e-07
8.20915e-07
8.22303e-07
8.22488e-07
8.23066e-07
8.22914e-07
8.22349e-07
8.22058e-07
8.20915e-07
8.20917e-07
8.20915e-07
8.20917e-07
8.20915e-07
8.2227e-07
8.22408e-07
8.22522e-07
8.22913e-07
8.22346e-07
8.22084e-07
8.20914e-07
8.20915e-07
8.20914e-07
8.22303e-07
8.22408e-07
8.22498e-07
8.23047e-07
8.22916e-07
8.22434e-07
8.22504e-07
8.225e-07
8.225e-07
8.22488e-07
8.22522e-07
8.23046e-07
8.22923e-07
8.23083e-07
8.23105e-07
8.23105e-07
8.23066e-07
8.14638e-07
8.13992e-07
8.13934e-07
8.13981e-07
8.14664e-07
8.14672e-07
8.14646e-07
8.1408e-07
8.13687e-07
8.12672e-07
8.12672e-07
8.12672e-07
8.13838e-07
8.14106e-07
8.14671e-07
8.1408e-07
8.13649e-07
8.12672e-07
8.12674e-07
8.12672e-07
8.12674e-07
8.12672e-07
8.13815e-07
8.14103e-07
8.14673e-07
8.14638e-07
8.13687e-07
8.12672e-07
8.12673e-07
8.12672e-07
8.12673e-07
8.12672e-07
8.12673e-07
8.12672e-07
8.13841e-07
8.14191e-07
8.1468e-07
8.13992e-07
8.12671e-07
8.12674e-07
8.12672e-07
8.12674e-07
8.12672e-07
8.12674e-07
8.12672e-07
8.12674e-07
8.12672e-07
8.14262e-07
8.1484e-07
8.13934e-07
8.12672e-07
8.12672e-07
8.12673e-07
8.12672e-07
8.12673e-07
8.12672e-07
8.12673e-07
8.12672e-07
8.12672e-07
8.14257e-07
8.14862e-07
8.13981e-07
8.12672e-07
8.12674e-07
8.12672e-07
8.12674e-07
8.12672e-07
8.12674e-07
8.12672e-07
8.12674e-07
8.12672e-07
8.14257e-07
8.14862e-07