/*--------------------------------*- C++ -*----------------------------------*\
| =========                 |                                                 |
| \\      /  F ield         | OpenFOAM: The Open Source CFD Toolbox           |
|  \\    /   O peration     | Version:  v2012                                 |
|   \\  /    A nd           | Website:  www.openfoam.com                      |
|    \\/     M anipulation  |                                                 |
\*---------------------------------------------------------------------------*/
FoamFile
{
    version     2.0;
    format      ascii;
    class       volScalarField;
    location    "48";
    object      p;
}
// * * * * * * * * * * * * * * * * * * * * * * * * * * * * * * * * * * * * * //

dimensions      [0 2 -2 0 0 0 0];


internalField   nonuniform List<scalar> 
292667
(
1.21398e-06
1.20448e-06
1.20371e-06
1.20378e-06
1.20484e-06
1.21489e-06
1.20469e-06
1.20201e-06
1.20043e-06
1.19979e-06
1.19987e-06
1.20071e-06
1.20252e-06
1.20546e-06
1.20469e-06
1.20122e-06
1.19905e-06
1.19786e-06
1.19736e-06
1.19743e-06
1.19808e-06
1.19946e-06
1.20191e-06
1.20569e-06
1.21398e-06
1.202e-06
1.19905e-06
1.1973e-06
1.19632e-06
1.1959e-06
1.19596e-06
1.1965e-06
1.19764e-06
1.19963e-06
1.20294e-06
1.21365e-06
1.20448e-06
1.20043e-06
1.19786e-06
1.19632e-06
1.19545e-06
1.19507e-06
1.19512e-06
1.19561e-06
1.19663e-06
1.19838e-06
1.2013e-06
1.20818e-06
1.20371e-06
1.19979e-06
1.19736e-06
1.1959e-06
1.19507e-06
1.19471e-06
1.19476e-06
1.19523e-06
1.1962e-06
1.19785e-06
1.20062e-06
1.2065e-06
1.20378e-06
1.19987e-06
1.19743e-06
1.19596e-06
1.19512e-06
1.19476e-06
1.19481e-06
1.19528e-06
1.19626e-06
1.19793e-06
1.20072e-06
1.20682e-06
1.20484e-06
1.20071e-06
1.19808e-06
1.1965e-06
1.19561e-06
1.19523e-06
1.19528e-06
1.19578e-06
1.19682e-06
1.19862e-06
1.20162e-06
1.2085e-06
1.21489e-06
1.20252e-06
1.19946e-06
1.19764e-06
1.19663e-06
1.1962e-06
1.19626e-06
1.19682e-06
1.19801e-06
1.20009e-06
1.20352e-06
1.21356e-06
1.20546e-06
1.20191e-06
1.19963e-06
1.19838e-06
1.19785e-06
1.19793e-06
1.19862e-06
1.20009e-06
1.20268e-06
1.20913e-06
1.20569e-06
1.20294e-06
1.2013e-06
1.20062e-06
1.20072e-06
1.20162e-06
1.20352e-06
1.20913e-06
1.21365e-06
1.20818e-06
1.2065e-06
1.20682e-06
1.2085e-06
1.21356e-06
1.18718e-06
1.1863e-06
1.18627e-06
1.18631e-06
1.18715e-06
1.18705e-06
1.18724e-06
1.18654e-06
1.18615e-06
1.18472e-06
1.1847e-06
1.18472e-06
1.18631e-06
1.18657e-06
1.18725e-06
1.18654e-06
1.18615e-06
1.18477e-06
1.18471e-06
1.18476e-06
1.18471e-06
1.18477e-06
1.18628e-06
1.18655e-06
1.18722e-06
1.18718e-06
1.18615e-06
1.18477e-06
1.18471e-06
1.18474e-06
1.18473e-06
1.18474e-06
1.18471e-06
1.18477e-06
1.18627e-06
1.18657e-06
1.18729e-06
1.1863e-06
1.18472e-06
1.18471e-06
1.18474e-06
1.18471e-06
1.18471e-06
1.18471e-06
1.18474e-06
1.18471e-06
1.18472e-06
1.1867e-06
1.18741e-06
1.18627e-06
1.1847e-06
1.18476e-06
1.18473e-06
1.18471e-06
1.1847e-06
1.18471e-06
1.18473e-06
1.18476e-06
1.1847e-06
1.18671e-06
1.1873e-06
1.18631e-06
1.18472e-06
1.18471e-06
1.18474e-06
1.18471e-06
1.18471e-06
1.18471e-06
1.18474e-06
1.18471e-06
1.18472e-06
1.18672e-06
1.18733e-06
1.18715e-06
1.18631e-06
1.18477e-06
1.18471e-06
1.18474e-06
1.18473e-06
1.18474e-06
1.18471e-06
1.18477e-06
1.18644e-06
1.18662e-06
1.18738e-06
1.18705e-06
1.18657e-06
1.18628e-06
1.18477e-06
1.18471e-06
1.18476e-06
1.18471e-06
1.18477e-06
1.18641e-06
1.18659e-06
1.18661e-06
1.18725e-06
1.18655e-06
1.18627e-06
1.18472e-06
1.1847e-06
1.18472e-06
1.18644e-06
1.18659e-06
1.18667e-06
1.18736e-06
1.18722e-06
1.18657e-06
1.1867e-06
1.18671e-06
1.18672e-06
1.18662e-06
1.18661e-06
1.18736e-06
1.18729e-06
1.18741e-06
1.1873e-06
1.18733e-06
1.18738e-06
1.17708e-06
1.17619e-06
1.17612e-06
1.17617e-06
1.17705e-06
1.17711e-06
1.17711e-06
1.17633e-06
1.17588e-06
1.17448e-06
1.17448e-06
1.17448e-06
1.17603e-06
1.17635e-06
1.17708e-06
1.17633e-06
1.17586e-06
1.17453e-06
1.17453e-06
1.17457e-06
1.17453e-06
1.17453e-06
1.17603e-06
1.17635e-06
1.17708e-06
1.17708e-06
1.17588e-06
1.17453e-06
1.17455e-06
1.1746e-06
1.1746e-06
1.1746e-06
1.17455e-06
1.17453e-06
1.17604e-06
1.1764e-06
1.17713e-06
1.17619e-06
1.17448e-06
1.17453e-06
1.1746e-06
1.17461e-06
1.17463e-06
1.17461e-06
1.1746e-06
1.17453e-06
1.17448e-06
1.17645e-06
1.17725e-06
1.17612e-06
1.17448e-06
1.17457e-06
1.1746e-06
1.17463e-06
1.17464e-06
1.17463e-06
1.1746e-06
1.17457e-06
1.17448e-06
1.17644e-06
1.17726e-06
1.17617e-06
1.17448e-06
1.17453e-06
1.1746e-06
1.17461e-06
1.17463e-06
1.17461e-06
1.1746e-06
1.17453e-06
1.17448e-06
1.17644e-06
1.17726e-06
1.17705e-06
1.17603e-06
1.17453e-06
1.17455e-06
1.1746e-06
1.1746e-06
1.1746e-06
1.17455e-06
1.17453e-06
1.17623e-06
1.17644e-06
1.17726e-06
1.17711e-06
1.17635e-06
1.17603e-06
1.17453e-06
1.17453e-06
1.17457e-06
1.17453e-06
1.17453e-06
1.17621e-06
1.17637e-06
1.17648e-06
1.17708e-06
1.17635e-06
1.17604e-06
1.17448e-06
1.17448e-06
1.17448e-06
1.17623e-06
1.17637e-06
1.17646e-06
1.17724e-06
1.17708e-06
1.1764e-06
1.17645e-06
1.17644e-06
1.17644e-06
1.17644e-06
1.17648e-06
1.17724e-06
1.17713e-06
1.17725e-06
1.17726e-06
1.17726e-06
1.17726e-06
1.16702e-06
1.16612e-06
1.16605e-06
1.1661e-06
1.16699e-06
1.16705e-06
1.16705e-06
1.16625e-06
1.16578e-06
1.16437e-06
1.16437e-06
1.16437e-06
1.16592e-06
1.16626e-06
1.16702e-06
1.16625e-06
1.16575e-06
1.16439e-06
1.1644e-06
1.16442e-06
1.1644e-06
1.16439e-06
1.16591e-06
1.16625e-06
1.16702e-06
1.16702e-06
1.16578e-06
1.16439e-06
1.16442e-06
1.16445e-06
1.16445e-06
1.16445e-06
1.16442e-06
1.16439e-06
1.16593e-06
1.16633e-06
1.16707e-06
1.16612e-06
1.16437e-06
1.1644e-06
1.16445e-06
1.16447e-06
1.16448e-06
1.16447e-06
1.16445e-06
1.1644e-06
1.16437e-06
1.16636e-06
1.16719e-06
1.16605e-06
1.16437e-06
1.16442e-06
1.16445e-06
1.16448e-06
1.16449e-06
1.16448e-06
1.16445e-06
1.16442e-06
1.16437e-06
1.16635e-06
1.1672e-06
1.1661e-06
1.16437e-06
1.1644e-06
1.16445e-06
1.16447e-06
1.16448e-06
1.16447e-06
1.16445e-06
1.1644e-06
1.16437e-06
1.16635e-06
1.1672e-06
1.16699e-06
1.16592e-06
1.16439e-06
1.16442e-06
1.16445e-06
1.16445e-06
1.16445e-06
1.16442e-06
1.16439e-06
1.16613e-06
1.16636e-06
1.1672e-06
1.16705e-06
1.16626e-06
1.16591e-06
1.16439e-06
1.1644e-06
1.16442e-06
1.1644e-06
1.16439e-06
1.1661e-06
1.16629e-06
1.16642e-06
1.16702e-06
1.16625e-06
1.16593e-06
1.16437e-06
1.16437e-06
1.16437e-06
1.16613e-06
1.16629e-06
1.1664e-06
1.16718e-06
1.16702e-06
1.16633e-06
1.16636e-06
1.16635e-06
1.16635e-06
1.16636e-06
1.16642e-06
1.16718e-06
1.16707e-06
1.16719e-06
1.1672e-06
1.1672e-06
1.1672e-06
1.15695e-06
1.15605e-06
1.15598e-06
1.15603e-06
1.15693e-06
1.15699e-06
1.15699e-06
1.15618e-06
1.1557e-06
1.15428e-06
1.15428e-06
1.15428e-06
1.15584e-06
1.15618e-06
1.15696e-06
1.15618e-06
1.15567e-06
1.15429e-06
1.1543e-06
1.15431e-06
1.1543e-06
1.15429e-06
1.15583e-06
1.15618e-06
1.15696e-06
1.15695e-06
1.1557e-06
1.15429e-06
1.15431e-06
1.15433e-06
1.15433e-06
1.15433e-06
1.15431e-06
1.15429e-06
1.15585e-06
1.15626e-06
1.15701e-06
1.15605e-06
1.15428e-06
1.1543e-06
1.15433e-06
1.15434e-06
1.15435e-06
1.15434e-06
1.15433e-06
1.1543e-06
1.15428e-06
1.15629e-06
1.15713e-06
1.15598e-06
1.15428e-06
1.15431e-06
1.15433e-06
1.15435e-06
1.15436e-06
1.15435e-06
1.15433e-06
1.15431e-06
1.15428e-06
1.15627e-06
1.15713e-06
1.15603e-06
1.15428e-06
1.1543e-06
1.15433e-06
1.15434e-06
1.15435e-06
1.15434e-06
1.15433e-06
1.1543e-06
1.15428e-06
1.15628e-06
1.15713e-06
1.15693e-06
1.15584e-06
1.15429e-06
1.15431e-06
1.15433e-06
1.15433e-06
1.15433e-06
1.15431e-06
1.15429e-06
1.15605e-06
1.1563e-06
1.15713e-06
1.15699e-06
1.15618e-06
1.15583e-06
1.15429e-06
1.1543e-06
1.15431e-06
1.1543e-06
1.15429e-06
1.15602e-06
1.15621e-06
1.15636e-06
1.15696e-06
1.15618e-06
1.15585e-06
1.15428e-06
1.15428e-06
1.15428e-06
1.15605e-06
1.15621e-06
1.15633e-06
1.15712e-06
1.15696e-06
1.15626e-06
1.15629e-06
1.15627e-06
1.15628e-06
1.1563e-06
1.15636e-06
1.15712e-06
1.15701e-06
1.15713e-06
1.15713e-06
1.15713e-06
1.15713e-06
1.14689e-06
1.14598e-06
1.14591e-06
1.14596e-06
1.14686e-06
1.14692e-06
1.14692e-06
1.14611e-06
1.14563e-06
1.1442e-06
1.1442e-06
1.1442e-06
1.14577e-06
1.14611e-06
1.14689e-06
1.14611e-06
1.1456e-06
1.14421e-06
1.14422e-06
1.14422e-06
1.14422e-06
1.14421e-06
1.14575e-06
1.14611e-06
1.1469e-06
1.14689e-06
1.14563e-06
1.14421e-06
1.14422e-06
1.14423e-06
1.14423e-06
1.14423e-06
1.14422e-06
1.14421e-06
1.14577e-06
1.14619e-06
1.14694e-06
1.14598e-06
1.1442e-06
1.14422e-06
1.14423e-06
1.14424e-06
1.14425e-06
1.14424e-06
1.14423e-06
1.14422e-06
1.1442e-06
1.14622e-06
1.14706e-06
1.14591e-06
1.1442e-06
1.14422e-06
1.14423e-06
1.14425e-06
1.14425e-06
1.14425e-06
1.14423e-06
1.14422e-06
1.1442e-06
1.14621e-06
1.14707e-06
1.14596e-06
1.1442e-06
1.14422e-06
1.14423e-06
1.14424e-06
1.14425e-06
1.14424e-06
1.14423e-06
1.14422e-06
1.1442e-06
1.14621e-06
1.14707e-06
1.14686e-06
1.14577e-06
1.14421e-06
1.14422e-06
1.14423e-06
1.14423e-06
1.14423e-06
1.14422e-06
1.14421e-06
1.14598e-06
1.14623e-06
1.14707e-06
1.14692e-06
1.14611e-06
1.14575e-06
1.14421e-06
1.14422e-06
1.14422e-06
1.14422e-06
1.14421e-06
1.14594e-06
1.14615e-06
1.14629e-06
1.14689e-06
1.14611e-06
1.14577e-06
1.1442e-06
1.1442e-06
1.1442e-06
1.14598e-06
1.14615e-06
1.14627e-06
1.14705e-06
1.1469e-06
1.14619e-06
1.14622e-06
1.14621e-06
1.14621e-06
1.14623e-06
1.14629e-06
1.14705e-06
1.14694e-06
1.14706e-06
1.14707e-06
1.14707e-06
1.14707e-06
1.13682e-06
1.13591e-06
1.13584e-06
1.13589e-06
1.1368e-06
1.13685e-06
1.13685e-06
1.13604e-06
1.13556e-06
1.13413e-06
1.13413e-06
1.13413e-06
1.1357e-06
1.13605e-06
1.13682e-06
1.13604e-06
1.13553e-06
1.13413e-06
1.13414e-06
1.13414e-06
1.13414e-06
1.13413e-06
1.13568e-06
1.13604e-06
1.13683e-06
1.13682e-06
1.13556e-06
1.13413e-06
1.13414e-06
1.13415e-06
1.13415e-06
1.13415e-06
1.13414e-06
1.13413e-06
1.13571e-06
1.13613e-06
1.13687e-06
1.13591e-06
1.13413e-06
1.13414e-06
1.13415e-06
1.13415e-06
1.13416e-06
1.13415e-06
1.13415e-06
1.13414e-06
1.13413e-06
1.13615e-06
1.137e-06
1.13584e-06
1.13413e-06
1.13414e-06
1.13415e-06
1.13416e-06
1.13416e-06
1.13416e-06
1.13415e-06
1.13414e-06
1.13413e-06
1.13614e-06
1.137e-06
1.13589e-06
1.13413e-06
1.13414e-06
1.13415e-06
1.13415e-06
1.13416e-06
1.13415e-06
1.13415e-06
1.13414e-06
1.13413e-06
1.13614e-06
1.137e-06
1.1368e-06
1.1357e-06
1.13413e-06
1.13414e-06
1.13415e-06
1.13415e-06
1.13415e-06
1.13414e-06
1.13413e-06
1.13591e-06
1.13616e-06
1.137e-06
1.13685e-06
1.13605e-06
1.13568e-06
1.13413e-06
1.13414e-06
1.13414e-06
1.13414e-06
1.13413e-06
1.13587e-06
1.13608e-06
1.13622e-06
1.13682e-06
1.13604e-06
1.13571e-06
1.13413e-06
1.13413e-06
1.13413e-06
1.13591e-06
1.13608e-06
1.1362e-06
1.13699e-06
1.13683e-06
1.13613e-06
1.13615e-06
1.13614e-06
1.13614e-06
1.13616e-06
1.13622e-06
1.13699e-06
1.13687e-06
1.137e-06
1.137e-06
1.137e-06
1.137e-06
1.12675e-06
1.12585e-06
1.12578e-06
1.12583e-06
1.12673e-06
1.12679e-06
1.12679e-06
1.12597e-06
1.12549e-06
1.12406e-06
1.12406e-06
1.12406e-06
1.12564e-06
1.12598e-06
1.12676e-06
1.12597e-06
1.12546e-06
1.12406e-06
1.12407e-06
1.12407e-06
1.12407e-06
1.12406e-06
1.12561e-06
1.12598e-06
1.12676e-06
1.12675e-06
1.12549e-06
1.12406e-06
1.12407e-06
1.12407e-06
1.12407e-06
1.12407e-06
1.12407e-06
1.12406e-06
1.12564e-06
1.12606e-06
1.12681e-06
1.12585e-06
1.12406e-06
1.12407e-06
1.12407e-06
1.12407e-06
1.12407e-06
1.12407e-06
1.12407e-06
1.12407e-06
1.12406e-06
1.12609e-06
1.12693e-06
1.12578e-06
1.12406e-06
1.12407e-06
1.12407e-06
1.12407e-06
1.12408e-06
1.12407e-06
1.12407e-06
1.12407e-06
1.12406e-06
1.12607e-06
1.12693e-06
1.12582e-06
1.12406e-06
1.12407e-06
1.12407e-06
1.12407e-06
1.12407e-06
1.12407e-06
1.12407e-06
1.12407e-06
1.12406e-06
1.12608e-06
1.12693e-06
1.12673e-06
1.12564e-06
1.12406e-06
1.12407e-06
1.12407e-06
1.12407e-06
1.12407e-06
1.12407e-06
1.12406e-06
1.12584e-06
1.12609e-06
1.12693e-06
1.12679e-06
1.12598e-06
1.12561e-06
1.12406e-06
1.12407e-06
1.12407e-06
1.12407e-06
1.12406e-06
1.1258e-06
1.12601e-06
1.12616e-06
1.12676e-06
1.12598e-06
1.12564e-06
1.12406e-06
1.12406e-06
1.12406e-06
1.12584e-06
1.12601e-06
1.12613e-06
1.12692e-06
1.12676e-06
1.12606e-06
1.12609e-06
1.12607e-06
1.12608e-06
1.12609e-06
1.12616e-06
1.12692e-06
1.12681e-06
1.12693e-06
1.12693e-06
1.12693e-06
1.12693e-06
1.11668e-06
1.11578e-06
1.11571e-06
1.11576e-06
1.11666e-06
1.11672e-06
1.11672e-06
1.11591e-06
1.11542e-06
1.11399e-06
1.11399e-06
1.11399e-06
1.11557e-06
1.11591e-06
1.11669e-06
1.11591e-06
1.11539e-06
1.11399e-06
1.11399e-06
1.11399e-06
1.11399e-06
1.11399e-06
1.11554e-06
1.11591e-06
1.11669e-06
1.11668e-06
1.11542e-06
1.11399e-06
1.11399e-06
1.114e-06
1.114e-06
1.114e-06
1.114e-06
1.11399e-06
1.11557e-06
1.11599e-06
1.11674e-06
1.11578e-06
1.11399e-06
1.11399e-06
1.114e-06
1.114e-06
1.114e-06
1.114e-06
1.114e-06
1.11399e-06
1.11399e-06
1.11602e-06
1.11686e-06
1.11571e-06
1.11399e-06
1.11399e-06
1.114e-06
1.114e-06
1.114e-06
1.114e-06
1.114e-06
1.11399e-06
1.11399e-06
1.116e-06
1.11686e-06
1.11576e-06
1.11399e-06
1.11399e-06
1.114e-06
1.114e-06
1.114e-06
1.114e-06
1.114e-06
1.11399e-06
1.11399e-06
1.11601e-06
1.11687e-06
1.11666e-06
1.11557e-06
1.11399e-06
1.11399e-06
1.114e-06
1.114e-06
1.114e-06
1.11399e-06
1.11399e-06
1.11577e-06
1.11603e-06
1.11686e-06
1.11672e-06
1.11591e-06
1.11554e-06
1.11399e-06
1.11399e-06
1.11399e-06
1.11399e-06
1.11399e-06
1.11574e-06
1.11594e-06
1.11609e-06
1.11669e-06
1.11591e-06
1.11557e-06
1.11399e-06
1.11399e-06
1.11399e-06
1.11577e-06
1.11594e-06
1.11606e-06
1.11685e-06
1.11669e-06
1.11599e-06
1.11602e-06
1.116e-06
1.11601e-06
1.11603e-06
1.11609e-06
1.11685e-06
1.11674e-06
1.11686e-06
1.11686e-06
1.11687e-06
1.11686e-06
1.10662e-06
1.10571e-06
1.10564e-06
1.10569e-06
1.10659e-06
1.10665e-06
1.10665e-06
1.10584e-06
1.10535e-06
1.10392e-06
1.10392e-06
1.10392e-06
1.1055e-06
1.10584e-06
1.10662e-06
1.10584e-06
1.10532e-06
1.10392e-06
1.10392e-06
1.10393e-06
1.10392e-06
1.10392e-06
1.10548e-06
1.10584e-06
1.10662e-06
1.10662e-06
1.10535e-06
1.10392e-06
1.10393e-06
1.10393e-06
1.10393e-06
1.10393e-06
1.10393e-06
1.10392e-06
1.1055e-06
1.10592e-06
1.10667e-06
1.10571e-06
1.10392e-06
1.10392e-06
1.10393e-06
1.10393e-06
1.10393e-06
1.10393e-06
1.10393e-06
1.10392e-06
1.10392e-06
1.10595e-06
1.10679e-06
1.10564e-06
1.10392e-06
1.10392e-06
1.10393e-06
1.10393e-06
1.10393e-06
1.10393e-06
1.10393e-06
1.10392e-06
1.10392e-06
1.10593e-06
1.1068e-06
1.10569e-06
1.10392e-06
1.10392e-06
1.10393e-06
1.10393e-06
1.10393e-06
1.10393e-06
1.10393e-06
1.10392e-06
1.10392e-06
1.10594e-06
1.1068e-06
1.10659e-06
1.1055e-06
1.10392e-06
1.10393e-06
1.10393e-06
1.10393e-06
1.10393e-06
1.10393e-06
1.10392e-06
1.1057e-06
1.10596e-06
1.1068e-06
1.10665e-06
1.10584e-06
1.10548e-06
1.10392e-06
1.10392e-06
1.10392e-06
1.10392e-06
1.10392e-06
1.10567e-06
1.10587e-06
1.10602e-06
1.10662e-06
1.10584e-06
1.1055e-06
1.10392e-06
1.10392e-06
1.10392e-06
1.1057e-06
1.10587e-06
1.106e-06
1.10678e-06
1.10662e-06
1.10592e-06
1.10595e-06
1.10593e-06
1.10594e-06
1.10596e-06
1.10602e-06
1.10678e-06
1.10667e-06
1.10679e-06
1.1068e-06
1.1068e-06
1.1068e-06
1.09655e-06
1.09564e-06
1.09557e-06
1.09562e-06
1.09652e-06
1.09658e-06
1.09658e-06
1.09577e-06
1.09528e-06
1.09385e-06
1.09385e-06
1.09385e-06
1.09543e-06
1.09577e-06
1.09655e-06
1.09577e-06
1.09525e-06
1.09385e-06
1.09386e-06
1.09386e-06
1.09386e-06
1.09385e-06
1.09541e-06
1.09577e-06
1.09656e-06
1.09655e-06
1.09528e-06
1.09385e-06
1.09386e-06
1.09386e-06
1.09386e-06
1.09386e-06
1.09386e-06
1.09385e-06
1.09543e-06
1.09585e-06
1.0966e-06
1.09564e-06
1.09385e-06
1.09386e-06
1.09386e-06
1.09386e-06
1.09386e-06
1.09386e-06
1.09386e-06
1.09386e-06
1.09385e-06
1.09588e-06
1.09673e-06
1.09557e-06
1.09386e-06
1.09386e-06
1.09386e-06
1.09386e-06
1.09386e-06
1.09386e-06
1.09386e-06
1.09386e-06
1.09385e-06
1.09586e-06
1.09673e-06
1.09562e-06
1.09385e-06
1.09386e-06
1.09386e-06
1.09386e-06
1.09386e-06
1.09386e-06
1.09386e-06
1.09386e-06
1.09385e-06
1.09587e-06
1.09673e-06
1.09652e-06
1.09543e-06
1.09385e-06
1.09386e-06
1.09386e-06
1.09386e-06
1.09386e-06
1.09386e-06
1.09385e-06
1.09563e-06
1.09589e-06
1.09673e-06
1.09658e-06
1.09577e-06
1.09541e-06
1.09385e-06
1.09386e-06
1.09386e-06
1.09386e-06
1.09385e-06
1.0956e-06
1.0958e-06
1.09595e-06
1.09655e-06
1.09577e-06
1.09543e-06
1.09385e-06
1.09385e-06
1.09385e-06
1.09563e-06
1.0958e-06
1.09593e-06
1.09671e-06
1.09656e-06
1.09585e-06
1.09588e-06
1.09586e-06
1.09587e-06
1.09589e-06
1.09595e-06
1.09671e-06
1.0966e-06
1.09673e-06
1.09673e-06
1.09673e-06
1.09673e-06
1.08648e-06
1.08557e-06
1.0855e-06
1.08555e-06
1.08646e-06
1.08651e-06
1.08651e-06
1.0857e-06
1.08522e-06
1.08379e-06
1.08379e-06
1.08379e-06
1.08536e-06
1.08571e-06
1.08648e-06
1.0857e-06
1.08518e-06
1.08379e-06
1.08379e-06
1.08379e-06
1.08379e-06
1.08379e-06
1.08534e-06
1.0857e-06
1.08649e-06
1.08648e-06
1.08522e-06
1.08379e-06
1.08379e-06
1.08379e-06
1.08379e-06
1.08379e-06
1.08379e-06
1.08379e-06
1.08536e-06
1.08579e-06
1.08653e-06
1.08557e-06
1.08379e-06
1.08379e-06
1.08379e-06
1.08379e-06
1.08379e-06
1.08379e-06
1.08379e-06
1.08379e-06
1.08379e-06
1.08581e-06
1.08666e-06
1.0855e-06
1.08379e-06
1.08379e-06
1.08379e-06
1.08379e-06
1.08379e-06
1.08379e-06
1.08379e-06
1.08379e-06
1.08379e-06
1.0858e-06
1.08666e-06
1.08555e-06
1.08379e-06
1.08379e-06
1.08379e-06
1.08379e-06
1.08379e-06
1.08379e-06
1.08379e-06
1.08379e-06
1.08379e-06
1.0858e-06
1.08666e-06
1.08646e-06
1.08536e-06
1.08379e-06
1.08379e-06
1.08379e-06
1.08379e-06
1.08379e-06
1.08379e-06
1.08379e-06
1.08556e-06
1.08582e-06
1.08666e-06
1.08651e-06
1.08571e-06
1.08534e-06
1.08379e-06
1.08379e-06
1.08379e-06
1.08379e-06
1.08379e-06
1.08553e-06
1.08574e-06
1.08588e-06
1.08648e-06
1.0857e-06
1.08536e-06
1.08379e-06
1.08379e-06
1.08379e-06
1.08556e-06
1.08574e-06
1.08586e-06
1.08665e-06
1.08649e-06
1.08579e-06
1.08581e-06
1.0858e-06
1.0858e-06
1.08582e-06
1.08588e-06
1.08665e-06
1.08653e-06
1.08666e-06
1.08666e-06
1.08666e-06
1.08666e-06
1.07641e-06
1.0755e-06
1.07543e-06
1.07548e-06
1.07639e-06
1.07645e-06
1.07645e-06
1.07563e-06
1.07515e-06
1.07372e-06
1.07372e-06
1.07372e-06
1.07529e-06
1.07564e-06
1.07642e-06
1.07563e-06
1.07511e-06
1.07372e-06
1.07372e-06
1.07372e-06
1.07372e-06
1.07372e-06
1.07527e-06
1.07563e-06
1.07642e-06
1.07641e-06
1.07515e-06
1.07372e-06
1.07372e-06
1.07372e-06
1.07372e-06
1.07372e-06
1.07372e-06
1.07372e-06
1.07529e-06
1.07572e-06
1.07647e-06
1.0755e-06
1.07372e-06
1.07372e-06
1.07372e-06
1.07372e-06
1.07372e-06
1.07372e-06
1.07372e-06
1.07372e-06
1.07372e-06
1.07574e-06
1.07659e-06
1.07543e-06
1.07372e-06
1.07372e-06
1.07372e-06
1.07372e-06
1.07372e-06
1.07372e-06
1.07372e-06
1.07372e-06
1.07372e-06
1.07573e-06
1.07659e-06
1.07548e-06
1.07372e-06
1.07372e-06
1.07372e-06
1.07372e-06
1.07372e-06
1.07372e-06
1.07372e-06
1.07372e-06
1.07372e-06
1.07573e-06
1.07659e-06
1.07639e-06
1.07529e-06
1.07372e-06
1.07372e-06
1.07372e-06
1.07372e-06
1.07372e-06
1.07372e-06
1.07372e-06
1.0755e-06
1.07575e-06
1.07659e-06
1.07645e-06
1.07564e-06
1.07527e-06
1.07372e-06
1.07372e-06
1.07372e-06
1.07372e-06
1.07372e-06
1.07546e-06
1.07567e-06
1.07582e-06
1.07642e-06
1.07563e-06
1.07529e-06
1.07372e-06
1.07372e-06
1.07372e-06
1.0755e-06
1.07567e-06
1.07579e-06
1.07658e-06
1.07642e-06
1.07572e-06
1.07574e-06
1.07573e-06
1.07573e-06
1.07575e-06
1.07582e-06
1.07658e-06
1.07647e-06
1.07659e-06
1.07659e-06
1.07659e-06
1.07659e-06
1.06634e-06
1.06544e-06
1.06537e-06
1.06542e-06
1.06632e-06
1.06638e-06
1.06638e-06
1.06557e-06
1.06508e-06
1.06365e-06
1.06365e-06
1.06365e-06
1.06523e-06
1.06557e-06
1.06635e-06
1.06557e-06
1.06505e-06
1.06365e-06
1.06365e-06
1.06365e-06
1.06365e-06
1.06365e-06
1.0652e-06
1.06557e-06
1.06635e-06
1.06634e-06
1.06508e-06
1.06365e-06
1.06365e-06
1.06365e-06
1.06365e-06
1.06365e-06
1.06365e-06
1.06365e-06
1.06523e-06
1.06565e-06
1.0664e-06
1.06544e-06
1.06365e-06
1.06365e-06
1.06365e-06
1.06365e-06
1.06365e-06
1.06365e-06
1.06365e-06
1.06365e-06
1.06365e-06
1.06568e-06
1.06652e-06
1.06537e-06
1.06365e-06
1.06365e-06
1.06365e-06
1.06365e-06
1.06365e-06
1.06365e-06
1.06365e-06
1.06365e-06
1.06365e-06
1.06566e-06
1.06652e-06
1.06542e-06
1.06365e-06
1.06365e-06
1.06365e-06
1.06365e-06
1.06365e-06
1.06365e-06
1.06365e-06
1.06365e-06
1.06365e-06
1.06567e-06
1.06652e-06
1.06632e-06
1.06523e-06
1.06365e-06
1.06365e-06
1.06365e-06
1.06365e-06
1.06365e-06
1.06365e-06
1.06365e-06
1.06543e-06
1.06569e-06
1.06652e-06
1.06638e-06
1.06557e-06
1.0652e-06
1.06365e-06
1.06365e-06
1.06365e-06
1.06365e-06
1.06365e-06
1.06539e-06
1.0656e-06
1.06575e-06
1.06635e-06
1.06557e-06
1.06523e-06
1.06365e-06
1.06365e-06
1.06365e-06
1.06543e-06
1.0656e-06
1.06572e-06
1.06651e-06
1.06635e-06
1.06565e-06
1.06568e-06
1.06566e-06
1.06567e-06
1.06569e-06
1.06575e-06
1.06651e-06
1.0664e-06
1.06652e-06
1.06652e-06
1.06652e-06
1.06652e-06
1.05627e-06
1.05537e-06
1.0553e-06
1.05535e-06
1.05625e-06
1.05631e-06
1.05631e-06
1.0555e-06
1.05501e-06
1.05358e-06
1.05358e-06
1.05358e-06
1.05516e-06
1.0555e-06
1.05628e-06
1.0555e-06
1.05498e-06
1.05358e-06
1.05358e-06
1.05358e-06
1.05358e-06
1.05358e-06
1.05513e-06
1.0555e-06
1.05628e-06
1.05627e-06
1.05501e-06
1.05358e-06
1.05358e-06
1.05358e-06
1.05358e-06
1.05358e-06
1.05358e-06
1.05358e-06
1.05516e-06
1.05558e-06
1.05633e-06
1.05537e-06
1.05358e-06
1.05358e-06
1.05358e-06
1.05358e-06
1.05358e-06
1.05358e-06
1.05358e-06
1.05358e-06
1.05358e-06
1.05561e-06
1.05645e-06
1.0553e-06
1.05358e-06
1.05358e-06
1.05358e-06
1.05358e-06
1.05358e-06
1.05358e-06
1.05358e-06
1.05358e-06
1.05358e-06
1.05559e-06
1.05646e-06
1.05535e-06
1.05358e-06
1.05358e-06
1.05358e-06
1.05358e-06
1.05358e-06
1.05358e-06
1.05358e-06
1.05358e-06
1.05358e-06
1.0556e-06
1.05646e-06
1.05625e-06
1.05516e-06
1.05358e-06
1.05358e-06
1.05358e-06
1.05358e-06
1.05358e-06
1.05358e-06
1.05358e-06
1.05536e-06
1.05562e-06
1.05646e-06
1.05631e-06
1.0555e-06
1.05513e-06
1.05358e-06
1.05358e-06
1.05358e-06
1.05358e-06
1.05358e-06
1.05533e-06
1.05553e-06
1.05568e-06
1.05628e-06
1.0555e-06
1.05516e-06
1.05358e-06
1.05358e-06
1.05358e-06
1.05536e-06
1.05553e-06
1.05565e-06
1.05644e-06
1.05628e-06
1.05558e-06
1.05561e-06
1.05559e-06
1.0556e-06
1.05562e-06
1.05568e-06
1.05644e-06
1.05633e-06
1.05645e-06
1.05646e-06
1.05646e-06
1.05646e-06
1.04621e-06
1.0453e-06
1.04523e-06
1.04528e-06
1.04618e-06
1.04624e-06
1.04624e-06
1.04543e-06
1.04494e-06
1.04351e-06
1.04351e-06
1.04351e-06
1.04509e-06
1.04543e-06
1.04621e-06
1.04543e-06
1.04491e-06
1.04351e-06
1.04351e-06
1.04351e-06
1.04351e-06
1.04351e-06
1.04507e-06
1.04543e-06
1.04622e-06
1.04621e-06
1.04494e-06
1.04351e-06
1.04351e-06
1.04351e-06
1.04351e-06
1.04351e-06
1.04351e-06
1.04351e-06
1.04509e-06
1.04551e-06
1.04626e-06
1.0453e-06
1.04351e-06
1.04351e-06
1.04351e-06
1.04351e-06
1.04351e-06
1.04351e-06
1.04351e-06
1.04351e-06
1.04351e-06
1.04554e-06
1.04638e-06
1.04523e-06
1.04351e-06
1.04351e-06
1.04351e-06
1.04351e-06
1.04351e-06
1.04351e-06
1.04351e-06
1.04351e-06
1.04351e-06
1.04552e-06
1.04639e-06
1.04528e-06
1.04351e-06
1.04351e-06
1.04351e-06
1.04351e-06
1.04351e-06
1.04351e-06
1.04351e-06
1.04351e-06
1.04351e-06
1.04553e-06
1.04639e-06
1.04618e-06
1.04509e-06
1.04351e-06
1.04351e-06
1.04351e-06
1.04351e-06
1.04351e-06
1.04351e-06
1.04351e-06
1.04529e-06
1.04555e-06
1.04639e-06
1.04624e-06
1.04543e-06
1.04507e-06
1.04351e-06
1.04351e-06
1.04351e-06
1.04351e-06
1.04351e-06
1.04526e-06
1.04546e-06
1.04561e-06
1.04621e-06
1.04543e-06
1.04509e-06
1.04351e-06
1.04351e-06
1.04351e-06
1.04529e-06
1.04546e-06
1.04559e-06
1.04637e-06
1.04622e-06
1.04551e-06
1.04554e-06
1.04552e-06
1.04553e-06
1.04555e-06
1.04561e-06
1.04637e-06
1.04626e-06
1.04638e-06
1.04639e-06
1.04639e-06
1.04639e-06
1.03614e-06
1.03523e-06
1.03516e-06
1.03521e-06
1.03611e-06
1.03617e-06
1.03617e-06
1.03536e-06
1.03488e-06
1.03344e-06
1.03345e-06
1.03344e-06
1.03502e-06
1.03536e-06
1.03614e-06
1.03536e-06
1.03484e-06
1.03345e-06
1.03345e-06
1.03345e-06
1.03345e-06
1.03345e-06
1.035e-06
1.03536e-06
1.03615e-06
1.03614e-06
1.03488e-06
1.03345e-06
1.03345e-06
1.03345e-06
1.03345e-06
1.03345e-06
1.03345e-06
1.03345e-06
1.03502e-06
1.03545e-06
1.03619e-06
1.03523e-06
1.03344e-06
1.03345e-06
1.03345e-06
1.03345e-06
1.03345e-06
1.03345e-06
1.03345e-06
1.03345e-06
1.03344e-06
1.03547e-06
1.03632e-06
1.03516e-06
1.03345e-06
1.03345e-06
1.03345e-06
1.03345e-06
1.03345e-06
1.03345e-06
1.03345e-06
1.03345e-06
1.03345e-06
1.03545e-06
1.03632e-06
1.03521e-06
1.03344e-06
1.03345e-06
1.03345e-06
1.03345e-06
1.03345e-06
1.03345e-06
1.03345e-06
1.03345e-06
1.03344e-06
1.03546e-06
1.03632e-06
1.03611e-06
1.03502e-06
1.03345e-06
1.03345e-06
1.03345e-06
1.03345e-06
1.03345e-06
1.03345e-06
1.03345e-06
1.03522e-06
1.03548e-06
1.03632e-06
1.03617e-06
1.03536e-06
1.035e-06
1.03345e-06
1.03345e-06
1.03345e-06
1.03345e-06
1.03345e-06
1.03519e-06
1.0354e-06
1.03554e-06
1.03614e-06
1.03536e-06
1.03502e-06
1.03344e-06
1.03345e-06
1.03344e-06
1.03522e-06
1.0354e-06
1.03552e-06
1.03631e-06
1.03615e-06
1.03545e-06
1.03547e-06
1.03545e-06
1.03546e-06
1.03548e-06
1.03554e-06
1.03631e-06
1.03619e-06
1.03632e-06
1.03632e-06
1.03632e-06
1.03632e-06
1.02607e-06
1.02516e-06
1.02509e-06
1.02514e-06
1.02605e-06
1.0261e-06
1.0261e-06
1.02529e-06
1.02481e-06
1.02338e-06
1.02338e-06
1.02338e-06
1.02495e-06
1.0253e-06
1.02608e-06
1.02529e-06
1.02477e-06
1.02338e-06
1.02338e-06
1.02338e-06
1.02338e-06
1.02338e-06
1.02493e-06
1.02529e-06
1.02608e-06
1.02607e-06
1.02481e-06
1.02338e-06
1.02338e-06
1.02338e-06
1.02338e-06
1.02338e-06
1.02338e-06
1.02338e-06
1.02495e-06
1.02538e-06
1.02612e-06
1.02516e-06
1.02338e-06
1.02338e-06
1.02338e-06
1.02338e-06
1.02338e-06
1.02338e-06
1.02338e-06
1.02338e-06
1.02338e-06
1.0254e-06
1.02625e-06
1.02509e-06
1.02338e-06
1.02338e-06
1.02338e-06
1.02338e-06
1.02338e-06
1.02338e-06
1.02338e-06
1.02338e-06
1.02338e-06
1.02539e-06
1.02625e-06
1.02514e-06
1.02338e-06
1.02338e-06
1.02338e-06
1.02338e-06
1.02338e-06
1.02338e-06
1.02338e-06
1.02338e-06
1.02338e-06
1.02539e-06
1.02625e-06
1.02605e-06
1.02495e-06
1.02338e-06
1.02338e-06
1.02338e-06
1.02338e-06
1.02338e-06
1.02338e-06
1.02338e-06
1.02516e-06
1.02541e-06
1.02625e-06
1.0261e-06
1.0253e-06
1.02493e-06
1.02338e-06
1.02338e-06
1.02338e-06
1.02338e-06
1.02338e-06
1.02512e-06
1.02533e-06
1.02548e-06
1.02608e-06
1.02529e-06
1.02495e-06
1.02338e-06
1.02338e-06
1.02338e-06
1.02516e-06
1.02533e-06
1.02545e-06
1.02624e-06
1.02608e-06
1.02538e-06
1.0254e-06
1.02539e-06
1.02539e-06
1.02541e-06
1.02548e-06
1.02624e-06
1.02612e-06
1.02625e-06
1.02625e-06
1.02625e-06
1.02625e-06
1.016e-06
1.0151e-06
1.01503e-06
1.01507e-06
1.01598e-06
1.01604e-06
1.01604e-06
1.01522e-06
1.01474e-06
1.01331e-06
1.01331e-06
1.01331e-06
1.01489e-06
1.01523e-06
1.01601e-06
1.01522e-06
1.0147e-06
1.01331e-06
1.01331e-06
1.01331e-06
1.01331e-06
1.01331e-06
1.01486e-06
1.01523e-06
1.01601e-06
1.016e-06
1.01474e-06
1.01331e-06
1.01331e-06
1.01331e-06
1.01331e-06
1.01331e-06
1.01331e-06
1.01331e-06
1.01489e-06
1.01531e-06
1.01606e-06
1.0151e-06
1.01331e-06
1.01331e-06
1.01331e-06
1.01331e-06
1.01331e-06
1.01331e-06
1.01331e-06
1.01331e-06
1.01331e-06
1.01534e-06
1.01618e-06
1.01503e-06
1.01331e-06
1.01331e-06
1.01331e-06
1.01331e-06
1.01331e-06
1.01331e-06
1.01331e-06
1.01331e-06
1.01331e-06
1.01532e-06
1.01618e-06
1.01507e-06
1.01331e-06
1.01331e-06
1.01331e-06
1.01331e-06
1.01331e-06
1.01331e-06
1.01331e-06
1.01331e-06
1.01331e-06
1.01533e-06
1.01618e-06
1.01598e-06
1.01489e-06
1.01331e-06
1.01331e-06
1.01331e-06
1.01331e-06
1.01331e-06
1.01331e-06
1.01331e-06
1.01509e-06
1.01534e-06
1.01618e-06
1.01604e-06
1.01523e-06
1.01486e-06
1.01331e-06
1.01331e-06
1.01331e-06
1.01331e-06
1.01331e-06
1.01505e-06
1.01526e-06
1.01541e-06
1.01601e-06
1.01523e-06
1.01489e-06
1.01331e-06
1.01331e-06
1.01331e-06
1.01509e-06
1.01526e-06
1.01538e-06
1.01617e-06
1.01601e-06
1.01531e-06
1.01534e-06
1.01532e-06
1.01533e-06
1.01534e-06
1.01541e-06
1.01617e-06
1.01606e-06
1.01618e-06
1.01618e-06
1.01618e-06
1.01618e-06
1.00593e-06
1.00503e-06
1.00496e-06
1.00501e-06
1.00591e-06
1.00597e-06
1.00597e-06
1.00516e-06
1.00467e-06
1.00324e-06
1.00324e-06
1.00324e-06
1.00482e-06
1.00516e-06
1.00594e-06
1.00516e-06
1.00464e-06
1.00324e-06
1.00324e-06
1.00324e-06
1.00324e-06
1.00324e-06
1.00479e-06
1.00516e-06
1.00594e-06
1.00593e-06
1.00467e-06
1.00324e-06
1.00324e-06
1.00324e-06
1.00324e-06
1.00324e-06
1.00324e-06
1.00324e-06
1.00482e-06
1.00524e-06
1.00599e-06
1.00503e-06
1.00324e-06
1.00324e-06
1.00324e-06
1.00324e-06
1.00324e-06
1.00324e-06
1.00324e-06
1.00324e-06
1.00324e-06
1.00527e-06
1.00611e-06
1.00496e-06
1.00324e-06
1.00324e-06
1.00324e-06
1.00324e-06
1.00324e-06
1.00324e-06
1.00324e-06
1.00324e-06
1.00324e-06
1.00525e-06
1.00611e-06
1.00501e-06
1.00324e-06
1.00324e-06
1.00324e-06
1.00324e-06
1.00324e-06
1.00324e-06
1.00324e-06
1.00324e-06
1.00324e-06
1.00526e-06
1.00612e-06
1.00591e-06
1.00482e-06
1.00324e-06
1.00324e-06
1.00324e-06
1.00324e-06
1.00324e-06
1.00324e-06
1.00324e-06
1.00502e-06
1.00528e-06
1.00611e-06
1.00597e-06
1.00516e-06
1.00479e-06
1.00324e-06
1.00324e-06
1.00324e-06
1.00324e-06
1.00324e-06
1.00498e-06
1.00519e-06
1.00534e-06
1.00594e-06
1.00516e-06
1.00482e-06
1.00324e-06
1.00324e-06
1.00324e-06
1.00502e-06
1.00519e-06
1.00531e-06
1.0061e-06
1.00594e-06
1.00524e-06
1.00527e-06
1.00525e-06
1.00526e-06
1.00528e-06
1.00534e-06
1.0061e-06
1.00599e-06
1.00611e-06
1.00611e-06
1.00612e-06
1.00611e-06
9.95865e-07
9.94959e-07
9.94889e-07
9.94938e-07
9.95842e-07
9.959e-07
9.959e-07
9.95088e-07
9.94602e-07
9.93172e-07
9.93173e-07
9.93172e-07
9.94749e-07
9.95091e-07
9.95871e-07
9.95088e-07
9.94568e-07
9.93172e-07
9.93173e-07
9.93173e-07
9.93173e-07
9.93172e-07
9.94725e-07
9.95089e-07
9.95875e-07
9.95865e-07
9.94602e-07
9.93172e-07
9.93173e-07
9.93172e-07
9.93173e-07
9.93172e-07
9.93173e-07
9.93172e-07
9.94749e-07
9.95173e-07
9.9592e-07
9.94959e-07
9.93172e-07
9.93173e-07
9.93172e-07
9.93173e-07
9.93173e-07
9.93173e-07
9.93172e-07
9.93173e-07
9.93172e-07
9.95199e-07
9.96044e-07
9.94889e-07
9.93173e-07
9.93173e-07
9.93173e-07
9.93173e-07
9.93173e-07
9.93173e-07
9.93173e-07
9.93173e-07
9.93173e-07
9.95181e-07
9.96046e-07
9.94938e-07
9.93172e-07
9.93173e-07
9.93172e-07
9.93173e-07
9.93173e-07