/*--------------------------------*- C++ -*----------------------------------*\
| =========                 |                                                 |
| \\      /  F ield         | OpenFOAM: The Open Source CFD Toolbox           |
|  \\    /   O peration     | Version:  v2012                                 |
|   \\  /    A nd           | Website:  www.openfoam.com                      |
|    \\/     M anipulation  |                                                 |
\*---------------------------------------------------------------------------*/
FoamFile
{
    version     2.0;
    format      ascii;
    class       volScalarField;
    location    "71";
    object      p;
}
// * * * * * * * * * * * * * * * * * * * * * * * * * * * * * * * * * * * * * //

dimensions      [0 2 -2 0 0 0 0];


internalField   nonuniform List<scalar> 
292667
(
1.05558e-06
1.04666e-06
1.04599e-06
1.04605e-06
1.04694e-06
1.05643e-06
1.04686e-06
1.04458e-06
1.04324e-06
1.04268e-06
1.04275e-06
1.04347e-06
1.04502e-06
1.04749e-06
1.04686e-06
1.04392e-06
1.04206e-06
1.04104e-06
1.0406e-06
1.04066e-06
1.04122e-06
1.04241e-06
1.0445e-06
1.04766e-06
1.05558e-06
1.04458e-06
1.04206e-06
1.04055e-06
1.03971e-06
1.03935e-06
1.0394e-06
1.03987e-06
1.04085e-06
1.04256e-06
1.04537e-06
1.05504e-06
1.04666e-06
1.04324e-06
1.04104e-06
1.03971e-06
1.03896e-06
1.03863e-06
1.03868e-06
1.0391e-06
1.03997e-06
1.04148e-06
1.04396e-06
1.04997e-06
1.04599e-06
1.04268e-06
1.0406e-06
1.03935e-06
1.03863e-06
1.03832e-06
1.03837e-06
1.03877e-06
1.0396e-06
1.04103e-06
1.04339e-06
1.04847e-06
1.04605e-06
1.04275e-06
1.04066e-06
1.0394e-06
1.03868e-06
1.03837e-06
1.03841e-06
1.03882e-06
1.03965e-06
1.04109e-06
1.04347e-06
1.04877e-06
1.04694e-06
1.04347e-06
1.04122e-06
1.03987e-06
1.0391e-06
1.03877e-06
1.03882e-06
1.03925e-06
1.04014e-06
1.04168e-06
1.04424e-06
1.05026e-06
1.05643e-06
1.04502e-06
1.04241e-06
1.04085e-06
1.03997e-06
1.0396e-06
1.03965e-06
1.04014e-06
1.04116e-06
1.04295e-06
1.04586e-06
1.05489e-06
1.04749e-06
1.0445e-06
1.04256e-06
1.04148e-06
1.04103e-06
1.04109e-06
1.04168e-06
1.04295e-06
1.04515e-06
1.05093e-06
1.04766e-06
1.04537e-06
1.04396e-06
1.04339e-06
1.04347e-06
1.04424e-06
1.04586e-06
1.05093e-06
1.05504e-06
1.04997e-06
1.04847e-06
1.04877e-06
1.05026e-06
1.05489e-06
1.03166e-06
1.03102e-06
1.03099e-06
1.03104e-06
1.0317e-06
1.03155e-06
1.03169e-06
1.03119e-06
1.03086e-06
1.02972e-06
1.02971e-06
1.02972e-06
1.03102e-06
1.03125e-06
1.03174e-06
1.03119e-06
1.03084e-06
1.02976e-06
1.02972e-06
1.02976e-06
1.02972e-06
1.02976e-06
1.03101e-06
1.03124e-06
1.03173e-06
1.03166e-06
1.03086e-06
1.02976e-06
1.0297e-06
1.02973e-06
1.02971e-06
1.02973e-06
1.0297e-06
1.02976e-06
1.03101e-06
1.03128e-06
1.03175e-06
1.03102e-06
1.02972e-06
1.02972e-06
1.02973e-06
1.02969e-06
1.02969e-06
1.02969e-06
1.02973e-06
1.02972e-06
1.02972e-06
1.03143e-06
1.03193e-06
1.03099e-06
1.02971e-06
1.02976e-06
1.02971e-06
1.02969e-06
1.02968e-06
1.02969e-06
1.02971e-06
1.02976e-06
1.02971e-06
1.03145e-06
1.03186e-06
1.03104e-06
1.02972e-06
1.02972e-06
1.02973e-06
1.02969e-06
1.02969e-06
1.02969e-06
1.02973e-06
1.02972e-06
1.02972e-06
1.03145e-06
1.03188e-06
1.0317e-06
1.03102e-06
1.02976e-06
1.0297e-06
1.02973e-06
1.02971e-06
1.02973e-06
1.0297e-06
1.02976e-06
1.03121e-06
1.03134e-06
1.03188e-06
1.03155e-06
1.03125e-06
1.03101e-06
1.02976e-06
1.02972e-06
1.02976e-06
1.02972e-06
1.02976e-06
1.03118e-06
1.03131e-06
1.0313e-06
1.03174e-06
1.03124e-06
1.03101e-06
1.02972e-06
1.02971e-06
1.02972e-06
1.03121e-06
1.03131e-06
1.03134e-06
1.03184e-06
1.03173e-06
1.03128e-06
1.03143e-06
1.03145e-06
1.03145e-06
1.03134e-06
1.0313e-06
1.03184e-06
1.03175e-06
1.03193e-06
1.03186e-06
1.03188e-06
1.03188e-06
1.02289e-06
1.02219e-06
1.02213e-06
1.02218e-06
1.0229e-06
1.02292e-06
1.0229e-06
1.0223e-06
1.02191e-06
1.02081e-06
1.02081e-06
1.02081e-06
1.02206e-06
1.02233e-06
1.02291e-06
1.0223e-06
1.02188e-06
1.02085e-06
1.02085e-06
1.02089e-06
1.02085e-06
1.02085e-06
1.02206e-06
1.02233e-06
1.02292e-06
1.02289e-06
1.02191e-06
1.02085e-06
1.02087e-06
1.02091e-06
1.02091e-06
1.02091e-06
1.02087e-06
1.02085e-06
1.02207e-06
1.0224e-06
1.02293e-06
1.02219e-06
1.02081e-06
1.02085e-06
1.02091e-06
1.02092e-06
1.02094e-06
1.02092e-06
1.02091e-06
1.02085e-06
1.02081e-06
1.02247e-06
1.02309e-06
1.02213e-06
1.02081e-06
1.02089e-06
1.02091e-06
1.02094e-06
1.02094e-06
1.02094e-06
1.02091e-06
1.02089e-06
1.02081e-06
1.02247e-06
1.02311e-06
1.02218e-06
1.02081e-06
1.02085e-06
1.02091e-06
1.02092e-06
1.02094e-06
1.02092e-06
1.02091e-06
1.02085e-06
1.02081e-06
1.02247e-06
1.02311e-06
1.0229e-06
1.02206e-06
1.02085e-06
1.02087e-06
1.02091e-06
1.02091e-06
1.02091e-06
1.02087e-06
1.02085e-06
1.02228e-06
1.02245e-06
1.02307e-06
1.02292e-06
1.02233e-06
1.02206e-06
1.02085e-06
1.02085e-06
1.02089e-06
1.02085e-06
1.02085e-06
1.02226e-06
1.02239e-06
1.02247e-06
1.02291e-06
1.02233e-06
1.02207e-06
1.02081e-06
1.02081e-06
1.02081e-06
1.02228e-06
1.02239e-06
1.02245e-06
1.02305e-06
1.02292e-06
1.0224e-06
1.02247e-06
1.02247e-06
1.02247e-06
1.02245e-06
1.02247e-06
1.02305e-06
1.02293e-06
1.02309e-06
1.02311e-06
1.02311e-06
1.02307e-06
1.01414e-06
1.01343e-06
1.01337e-06
1.01342e-06
1.01415e-06
1.01417e-06
1.01415e-06
1.01353e-06
1.01312e-06
1.01201e-06
1.01201e-06
1.01201e-06
1.01328e-06
1.01356e-06
1.01416e-06
1.01353e-06
1.01309e-06
1.01203e-06
1.01205e-06
1.01206e-06
1.01205e-06
1.01203e-06
1.01326e-06
1.01356e-06
1.01417e-06
1.01414e-06
1.01312e-06
1.01203e-06
1.01206e-06
1.01209e-06
1.01209e-06
1.01209e-06
1.01206e-06
1.01203e-06
1.01328e-06
1.01363e-06
1.01419e-06
1.01343e-06
1.01201e-06
1.01205e-06
1.01209e-06
1.0121e-06
1.01211e-06
1.0121e-06
1.01209e-06
1.01205e-06
1.01201e-06
1.0137e-06
1.01434e-06
1.01337e-06
1.01201e-06
1.01206e-06
1.01209e-06
1.01211e-06
1.01212e-06
1.01211e-06
1.01209e-06
1.01206e-06
1.01201e-06
1.01369e-06
1.01436e-06
1.01342e-06
1.01201e-06
1.01205e-06
1.01209e-06
1.0121e-06
1.01211e-06
1.0121e-06
1.01209e-06
1.01205e-06
1.01201e-06
1.01369e-06
1.01436e-06
1.01415e-06
1.01328e-06
1.01203e-06
1.01206e-06
1.01209e-06
1.01209e-06
1.01209e-06
1.01206e-06
1.01203e-06
1.0135e-06
1.01368e-06
1.01433e-06
1.01417e-06
1.01356e-06
1.01326e-06
1.01203e-06
1.01205e-06
1.01206e-06
1.01205e-06
1.01203e-06
1.01347e-06
1.01361e-06
1.01372e-06
1.01416e-06
1.01356e-06
1.01328e-06
1.01201e-06
1.01201e-06
1.01201e-06
1.0135e-06
1.01361e-06
1.0137e-06
1.0143e-06
1.01417e-06
1.01363e-06
1.0137e-06
1.01369e-06
1.01369e-06
1.01368e-06
1.01372e-06
1.0143e-06
1.01419e-06
1.01434e-06
1.01436e-06
1.01436e-06
1.01433e-06
1.00539e-06
1.00468e-06
1.00462e-06
1.00467e-06
1.0054e-06
1.00542e-06
1.0054e-06
1.00478e-06
1.00436e-06
1.00324e-06
1.00324e-06
1.00324e-06
1.00451e-06
1.0048e-06
1.00542e-06
1.00478e-06
1.00433e-06
1.00325e-06
1.00326e-06
1.00327e-06
1.00326e-06
1.00325e-06
1.00449e-06
1.0048e-06
1.00542e-06
1.00539e-06
1.00436e-06
1.00325e-06
1.00327e-06
1.00329e-06
1.00329e-06
1.00329e-06
1.00327e-06
1.00325e-06
1.00452e-06
1.00488e-06
1.00544e-06
1.00468e-06
1.00324e-06
1.00326e-06
1.00329e-06
1.0033e-06
1.00331e-06
1.0033e-06
1.00329e-06
1.00326e-06
1.00324e-06
1.00494e-06
1.00559e-06
1.00462e-06
1.00324e-06
1.00327e-06
1.00329e-06
1.00331e-06
1.00331e-06
1.00331e-06
1.00329e-06
1.00327e-06
1.00324e-06
1.00493e-06
1.00561e-06
1.00467e-06
1.00324e-06
1.00326e-06
1.00329e-06
1.0033e-06
1.00331e-06
1.0033e-06
1.00329e-06
1.00326e-06
1.00324e-06
1.00494e-06
1.00561e-06
1.0054e-06
1.00451e-06
1.00325e-06
1.00327e-06
1.00329e-06
1.00329e-06
1.00329e-06
1.00327e-06
1.00325e-06
1.00473e-06
1.00493e-06
1.00558e-06
1.00542e-06
1.0048e-06
1.00449e-06
1.00325e-06
1.00326e-06
1.00327e-06
1.00326e-06
1.00325e-06
1.0047e-06
1.00485e-06
1.00497e-06
1.00542e-06
1.0048e-06
1.00452e-06
1.00324e-06
1.00324e-06
1.00324e-06
1.00473e-06
1.00485e-06
1.00495e-06
1.00556e-06
1.00542e-06
1.00488e-06
1.00494e-06
1.00493e-06
1.00494e-06
1.00493e-06
1.00497e-06
1.00556e-06
1.00544e-06
1.00559e-06
1.00561e-06
1.00561e-06
1.00558e-06
9.9664e-07
9.95927e-07
9.95865e-07
9.95913e-07
9.96654e-07
9.96672e-07
9.96654e-07
9.96027e-07
9.95607e-07
9.94481e-07
9.94482e-07
9.94481e-07
9.95757e-07
9.96046e-07
9.96665e-07
9.96027e-07
9.95571e-07
9.94486e-07
9.94493e-07
9.94496e-07
9.94493e-07
9.94486e-07
9.95736e-07
9.96044e-07
9.96669e-07
9.9664e-07
9.95607e-07
9.94486e-07
9.94496e-07
9.94506e-07
9.94507e-07
9.94506e-07
9.94496e-07
9.94486e-07
9.9576e-07
9.96129e-07
9.96686e-07
9.95927e-07
9.94481e-07
9.94493e-07
9.94506e-07
9.94515e-07
9.94519e-07
9.94514e-07
9.94506e-07
9.94493e-07
9.94481e-07
9.96188e-07
9.96837e-07
9.95865e-07
9.94482e-07
9.94496e-07
9.94507e-07
9.94519e-07
9.94521e-07
9.94519e-07
9.94507e-07
9.94496e-07
9.94482e-07
9.96181e-07
9.96855e-07
9.95913e-07
9.94481e-07
9.94493e-07
9.94506e-07
9.94514e-07
9.94519e-07
9.94514e-07
9.94506e-07
9.94493e-07
9.94481e-07
9.96183e-07
9.96855e-07
9.96653e-07
9.95757e-07
9.94486e-07
9.94496e-07
9.94506e-07
9.94507e-07
9.94506e-07
9.94496e-07
9.94486e-07
9.95976e-07
9.96178e-07
9.96826e-07
9.96672e-07
9.96046e-07
9.95736e-07
9.94486e-07
9.94493e-07
9.94496e-07
9.94493e-07
9.94486e-07
9.95944e-07
9.96099e-07
9.9622e-07
9.96665e-07
9.96044e-07
9.9576e-07
9.94481e-07
9.94482e-07
9.94481e-07
9.95976e-07
9.96099e-07
9.96195e-07
9.96806e-07
9.96669e-07
9.96129e-07
9.96188e-07
9.96181e-07
9.96182e-07
9.96178e-07
9.9622e-07
9.96806e-07
9.96686e-07
9.96837e-07
9.96855e-07
9.96855e-07
9.96826e-07
9.87887e-07
9.87173e-07
9.87112e-07
9.8716e-07
9.87901e-07
9.8792e-07
9.87902e-07
9.87274e-07
9.86852e-07
9.85724e-07
9.85725e-07
9.85724e-07
9.87003e-07
9.87293e-07
9.87913e-07
9.87273e-07
9.86816e-07
9.85727e-07
9.85732e-07
9.85733e-07
9.85732e-07
9.85727e-07
9.86981e-07
9.87291e-07
9.87916e-07
9.87887e-07
9.86852e-07
9.85727e-07
9.85733e-07
9.85738e-07
9.85739e-07
9.85738e-07
9.85733e-07
9.85727e-07
9.87006e-07
9.87376e-07
9.87934e-07
9.87173e-07
9.85724e-07
9.85732e-07
9.85738e-07
9.85744e-07
9.85746e-07
9.85744e-07
9.85738e-07
9.85732e-07
9.85724e-07
9.87435e-07
9.88084e-07
9.87112e-07
9.85725e-07
9.85733e-07
9.85739e-07
9.85746e-07
9.85747e-07
9.85746e-07
9.85739e-07
9.85733e-07
9.85725e-07
9.87427e-07
9.88102e-07
9.8716e-07
9.85724e-07
9.85732e-07
9.85738e-07
9.85744e-07
9.85746e-07
9.85744e-07
9.85738e-07
9.85732e-07
9.85724e-07
9.87429e-07
9.88102e-07
9.87901e-07
9.87003e-07
9.85727e-07
9.85733e-07
9.85738e-07
9.85739e-07
9.85738e-07
9.85733e-07
9.85727e-07
9.87221e-07
9.87425e-07
9.88073e-07
9.8792e-07
9.87293e-07
9.86981e-07
9.85727e-07
9.85732e-07
9.85733e-07
9.85732e-07
9.85727e-07
9.87189e-07
9.87346e-07
9.87468e-07
9.87913e-07
9.8729e-07
9.87006e-07
9.85724e-07
9.85725e-07
9.85724e-07
9.87221e-07
9.87345e-07
9.87443e-07
9.88054e-07
9.87916e-07
9.87376e-07
9.87435e-07
9.87427e-07
9.87429e-07
9.87425e-07
9.87467e-07
9.88054e-07
9.87934e-07
9.88084e-07
9.88102e-07
9.88102e-07
9.88073e-07
9.79135e-07
9.7842e-07
9.78358e-07
9.78406e-07
9.79148e-07
9.79168e-07
9.79149e-07
9.7852e-07
9.78099e-07
9.76969e-07
9.7697e-07
9.76969e-07
9.78249e-07
9.7854e-07
9.7916e-07
9.7852e-07
9.78062e-07
9.76971e-07
9.76974e-07
9.76974e-07
9.76974e-07
9.76971e-07
9.78227e-07
9.78537e-07
9.79164e-07
9.79135e-07
9.78099e-07
9.76971e-07
9.76975e-07
9.76977e-07
9.76978e-07
9.76977e-07
9.76975e-07
9.76971e-07
9.78252e-07
9.78623e-07
9.79181e-07
9.7842e-07
9.76969e-07
9.76974e-07
9.76977e-07
9.7698e-07
9.76981e-07
9.7698e-07
9.76977e-07
9.76974e-07
9.76969e-07
9.78681e-07
9.79331e-07
9.78358e-07
9.7697e-07
9.76974e-07
9.76978e-07
9.76981e-07
9.76982e-07
9.76981e-07
9.76978e-07
9.76974e-07
9.7697e-07
9.78673e-07
9.79349e-07
9.78406e-07
9.76969e-07
9.76974e-07
9.76977e-07
9.7698e-07
9.76982e-07
9.76981e-07
9.76977e-07
9.76974e-07
9.76969e-07
9.78676e-07
9.7935e-07
9.79148e-07
9.78249e-07
9.76971e-07
9.76975e-07
9.76977e-07
9.76978e-07
9.76977e-07
9.76975e-07
9.76971e-07
9.78468e-07
9.78672e-07
9.7932e-07
9.79168e-07
9.7854e-07
9.78227e-07
9.76971e-07
9.76974e-07
9.76974e-07
9.76974e-07
9.76971e-07
9.78435e-07
9.78592e-07
9.78715e-07
9.79161e-07
9.78537e-07
9.78252e-07
9.76969e-07
9.7697e-07
9.76969e-07
9.78468e-07
9.78592e-07
9.7869e-07
9.79302e-07
9.79164e-07
9.78623e-07
9.78681e-07
9.78673e-07
9.78676e-07
9.78672e-07
9.78715e-07
9.79301e-07
9.79181e-07
9.79331e-07
9.79349e-07
9.7935e-07
9.7932e-07
9.70381e-07
9.69667e-07
9.69605e-07
9.69653e-07
9.70395e-07
9.70414e-07
9.70396e-07
9.69767e-07
9.69345e-07
9.68215e-07
9.68216e-07
9.68215e-07
9.69496e-07
9.69786e-07
9.70408e-07
9.69767e-07
9.69308e-07
9.68216e-07
9.68218e-07
9.68218e-07
9.68218e-07
9.68216e-07
9.69473e-07
9.69784e-07
9.70411e-07
9.70381e-07
9.69345e-07
9.68216e-07
9.68218e-07
9.68219e-07
9.6822e-07
9.68219e-07
9.68219e-07
9.68216e-07
9.69498e-07
9.6987e-07
9.70428e-07
9.69667e-07
9.68215e-07
9.68218e-07
9.68219e-07
9.68222e-07
9.68222e-07
9.68222e-07
9.68219e-07
9.68218e-07
9.68215e-07
9.69928e-07
9.70578e-07
9.69605e-07
9.68216e-07
9.68218e-07
9.6822e-07
9.68222e-07
9.68223e-07
9.68222e-07
9.6822e-07
9.68218e-07
9.68216e-07
9.6992e-07
9.70596e-07
9.69653e-07
9.68215e-07
9.68218e-07
9.68219e-07
9.68222e-07
9.68222e-07
9.68222e-07
9.6822e-07
9.68218e-07
9.68215e-07
9.69922e-07
9.70596e-07
9.70395e-07
9.69496e-07
9.68216e-07
9.68219e-07
9.6822e-07
9.6822e-07
9.6822e-07
9.68219e-07
9.68216e-07
9.69714e-07
9.69919e-07
9.70567e-07
9.70414e-07
9.69786e-07
9.69473e-07
9.68216e-07
9.68218e-07
9.68218e-07
9.68218e-07
9.68216e-07
9.69681e-07
9.69839e-07
9.69962e-07
9.70408e-07
9.69784e-07
9.69498e-07
9.68215e-07
9.68216e-07
9.68215e-07
9.69714e-07
9.69839e-07
9.69937e-07
9.70549e-07
9.70411e-07
9.6987e-07
9.69928e-07
9.6992e-07
9.69922e-07
9.69919e-07
9.69962e-07
9.70549e-07
9.70428e-07
9.70578e-07
9.70596e-07
9.70596e-07
9.70567e-07
9.61628e-07
9.60913e-07
9.60852e-07
9.60899e-07
9.61641e-07
9.61661e-07
9.61643e-07
9.61014e-07
9.60592e-07
9.59461e-07
9.59462e-07
9.59461e-07
9.60742e-07
9.61033e-07
9.61654e-07
9.61014e-07
9.60555e-07
9.59462e-07
9.59464e-07
9.59463e-07
9.59464e-07
9.59462e-07
9.6072e-07
9.61031e-07
9.61658e-07
9.61628e-07
9.60592e-07
9.59462e-07
9.59464e-07
9.59464e-07
9.59465e-07
9.59464e-07
9.59464e-07
9.59462e-07
9.60745e-07
9.61117e-07
9.61674e-07
9.60913e-07
9.59461e-07
9.59464e-07
9.59464e-07
9.59465e-07
9.59465e-07
9.59465e-07
9.59464e-07
9.59464e-07
9.59461e-07
9.61174e-07
9.61825e-07
9.60852e-07
9.59462e-07
9.59463e-07
9.59465e-07
9.59465e-07
9.59466e-07
9.59465e-07
9.59465e-07
9.59463e-07
9.59462e-07
9.61166e-07
9.61843e-07
9.60899e-07
9.59461e-07
9.59464e-07
9.59464e-07
9.59465e-07
9.59465e-07
9.59465e-07
9.59464e-07
9.59464e-07
9.59461e-07
9.61169e-07
9.61843e-07
9.61641e-07
9.60742e-07
9.59462e-07
9.59464e-07
9.59464e-07
9.59465e-07
9.59464e-07
9.59464e-07
9.59462e-07
9.6096e-07
9.61166e-07
9.61814e-07
9.61661e-07
9.61033e-07
9.6072e-07
9.59462e-07
9.59464e-07
9.59463e-07
9.59464e-07
9.59462e-07
9.60928e-07
9.61086e-07
9.61208e-07
9.61654e-07
9.61031e-07
9.60745e-07
9.59461e-07
9.59462e-07
9.59461e-07
9.6096e-07
9.61086e-07
9.61184e-07
9.61795e-07
9.61658e-07
9.61117e-07
9.61174e-07
9.61166e-07
9.61169e-07
9.61166e-07
9.61208e-07
9.61795e-07
9.61674e-07
9.61825e-07
9.61843e-07
9.61843e-07
9.61814e-07
9.52875e-07
9.5216e-07
9.52098e-07
9.52146e-07
9.52888e-07
9.52908e-07
9.5289e-07
9.5226e-07
9.51838e-07
9.50708e-07
9.50708e-07
9.50708e-07
9.51989e-07
9.5228e-07
9.52901e-07
9.5226e-07
9.51801e-07
9.50708e-07
9.5071e-07
9.50709e-07
9.5071e-07
9.50708e-07
9.51966e-07
9.52277e-07
9.52904e-07
9.52875e-07
9.51838e-07
9.50708e-07
9.5071e-07
9.50709e-07
9.5071e-07
9.50709e-07
9.50709e-07
9.50708e-07
9.51992e-07
9.52363e-07
9.52921e-07
9.5216e-07
9.50708e-07
9.5071e-07
9.50709e-07
9.50711e-07
9.5071e-07
9.50711e-07
9.50709e-07
9.5071e-07
9.50708e-07
9.52421e-07
9.53071e-07
9.52098e-07
9.50708e-07
9.50709e-07
9.5071e-07
9.5071e-07
9.50711e-07
9.5071e-07
9.5071e-07
9.50709e-07
9.50708e-07
9.52413e-07
9.53089e-07
9.52146e-07
9.50708e-07
9.5071e-07
9.50709e-07
9.50711e-07
9.5071e-07
9.50711e-07
9.50709e-07
9.5071e-07
9.50708e-07
9.52415e-07
9.5309e-07
9.52888e-07
9.51989e-07
9.50708e-07
9.5071e-07
9.50709e-07
9.5071e-07
9.50709e-07
9.50709e-07
9.50708e-07
9.52207e-07
9.52412e-07
9.53061e-07
9.52908e-07
9.5228e-07
9.51966e-07
9.50708e-07
9.5071e-07
9.50709e-07
9.5071e-07
9.50708e-07
9.52174e-07
9.52332e-07
9.52455e-07
9.52901e-07
9.52277e-07
9.51992e-07
9.50708e-07
9.50708e-07
9.50708e-07
9.52207e-07
9.52332e-07
9.5243e-07
9.53042e-07
9.52904e-07
9.52363e-07
9.52421e-07
9.52413e-07
9.52415e-07
9.52412e-07
9.52455e-07
9.53042e-07
9.52921e-07
9.53071e-07
9.53089e-07
9.5309e-07
9.53061e-07
9.44122e-07
9.43407e-07
9.43345e-07
9.43393e-07
9.44135e-07
9.44155e-07
9.44136e-07
9.43507e-07
9.43085e-07
9.41954e-07
9.41955e-07
9.41954e-07
9.43236e-07
9.43526e-07
9.44148e-07
9.43507e-07
9.43048e-07
9.41955e-07
9.41956e-07
9.41955e-07
9.41956e-07
9.41955e-07
9.43213e-07
9.43524e-07
9.44151e-07
9.44122e-07
9.43085e-07
9.41955e-07
9.41956e-07
9.41955e-07
9.41956e-07
9.41955e-07
9.41956e-07
9.41955e-07
9.43238e-07
9.4361e-07
9.44168e-07
9.43407e-07
9.41954e-07
9.41956e-07
9.41955e-07
9.41957e-07
9.41956e-07
9.41957e-07
9.41955e-07
9.41956e-07
9.41954e-07
9.43668e-07
9.44318e-07
9.43345e-07
9.41955e-07
9.41955e-07
9.41956e-07
9.41956e-07
9.41956e-07
9.41956e-07
9.41956e-07
9.41955e-07
9.41955e-07
9.43659e-07
9.44336e-07
9.43393e-07
9.41954e-07
9.41956e-07
9.41955e-07
9.41957e-07
9.41956e-07
9.41957e-07
9.41955e-07
9.41956e-07
9.41954e-07
9.43662e-07
9.44336e-07
9.44135e-07
9.43236e-07
9.41955e-07
9.41956e-07
9.41955e-07
9.41956e-07
9.41955e-07
9.41956e-07
9.41955e-07
9.43454e-07
9.43659e-07
9.44307e-07
9.44155e-07
9.43526e-07
9.43213e-07
9.41955e-07
9.41956e-07
9.41955e-07
9.41956e-07
9.41955e-07
9.43421e-07
9.43579e-07
9.43702e-07
9.44148e-07
9.43524e-07
9.43238e-07
9.41954e-07
9.41955e-07
9.41954e-07
9.43454e-07
9.43579e-07
9.43677e-07
9.44289e-07
9.44151e-07
9.4361e-07
9.43668e-07
9.43659e-07
9.43662e-07
9.43659e-07
9.43702e-07
9.44289e-07
9.44168e-07
9.44318e-07
9.44336e-07
9.44336e-07
9.44307e-07
9.35368e-07
9.34653e-07
9.34591e-07
9.34639e-07
9.35381e-07
9.35401e-07
9.35383e-07
9.34754e-07
9.34331e-07
9.33201e-07
9.33201e-07
9.33201e-07
9.34482e-07
9.34773e-07
9.35394e-07
9.34754e-07
9.34294e-07
9.33201e-07
9.33203e-07
9.33202e-07
9.33203e-07
9.33201e-07
9.34459e-07
9.3477e-07
9.35398e-07
9.35368e-07
9.34331e-07
9.33201e-07
9.33202e-07
9.33202e-07
9.33202e-07
9.33202e-07
9.33202e-07
9.33201e-07
9.34485e-07
9.34857e-07
9.35414e-07
9.34653e-07
9.33201e-07
9.33203e-07
9.33202e-07
9.33203e-07
9.33202e-07
9.33203e-07
9.33202e-07
9.33203e-07
9.33201e-07
9.34914e-07
9.35565e-07
9.34591e-07
9.33201e-07
9.33202e-07
9.33202e-07
9.33202e-07
9.33203e-07
9.33202e-07
9.33202e-07
9.33202e-07
9.33201e-07
9.34906e-07
9.35583e-07
9.34639e-07
9.33201e-07
9.33203e-07
9.33202e-07
9.33203e-07
9.33202e-07
9.33203e-07
9.33202e-07
9.33203e-07
9.33201e-07
9.34908e-07
9.35583e-07
9.35381e-07
9.34482e-07
9.33201e-07
9.33202e-07
9.33202e-07
9.33202e-07
9.33202e-07
9.33202e-07
9.33201e-07
9.347e-07
9.34906e-07
9.35554e-07
9.35401e-07
9.34773e-07
9.34459e-07
9.33201e-07
9.33203e-07
9.33202e-07
9.33203e-07
9.33201e-07
9.34667e-07
9.34825e-07
9.34948e-07
9.35394e-07
9.3477e-07
9.34485e-07
9.33201e-07
9.33201e-07
9.33201e-07
9.347e-07
9.34825e-07
9.34924e-07
9.35535e-07
9.35398e-07
9.34857e-07
9.34914e-07
9.34906e-07
9.34908e-07
9.34906e-07
9.34948e-07
9.35535e-07
9.35414e-07
9.35565e-07
9.35583e-07
9.35583e-07
9.35554e-07
9.26615e-07
9.259e-07
9.25838e-07
9.25886e-07
9.26628e-07
9.26648e-07
9.2663e-07
9.26e-07
9.25578e-07
9.24447e-07
9.24448e-07
9.24447e-07
9.25729e-07
9.2602e-07
9.26641e-07
9.26e-07
9.25541e-07
9.24448e-07
9.24449e-07
9.24448e-07
9.24449e-07
9.24448e-07
9.25706e-07
9.26017e-07
9.26644e-07
9.26615e-07
9.25578e-07
9.24448e-07
9.24449e-07
9.24448e-07
9.24448e-07
9.24448e-07
9.24449e-07
9.24448e-07
9.25731e-07
9.26103e-07
9.26661e-07
9.259e-07
9.24447e-07
9.24449e-07
9.24448e-07
9.2445e-07
9.24448e-07
9.2445e-07
9.24448e-07
9.24449e-07
9.24447e-07
9.26161e-07
9.26811e-07
9.25838e-07
9.24448e-07
9.24448e-07
9.24448e-07
9.24448e-07
9.24449e-07
9.24448e-07
9.24448e-07
9.24448e-07
9.24448e-07
9.26153e-07
9.26829e-07
9.25886e-07
9.24447e-07
9.24449e-07
9.24448e-07
9.2445e-07
9.24448e-07
9.2445e-07
9.24448e-07
9.24449e-07
9.24447e-07
9.26155e-07
9.2683e-07
9.26628e-07
9.25729e-07
9.24448e-07
9.24449e-07
9.24448e-07
9.24448e-07
9.24448e-07
9.24449e-07
9.24448e-07
9.25947e-07
9.26152e-07
9.26801e-07
9.26648e-07
9.2602e-07
9.25706e-07
9.24448e-07
9.24449e-07
9.24448e-07
9.24449e-07
9.24448e-07
9.25914e-07
9.26072e-07
9.26195e-07
9.26641e-07
9.26017e-07
9.25731e-07
9.24447e-07
9.24448e-07
9.24447e-07
9.25947e-07
9.26072e-07
9.26171e-07
9.26782e-07
9.26644e-07
9.26103e-07
9.26161e-07
9.26153e-07
9.26155e-07
9.26152e-07
9.26195e-07
9.26782e-07
9.26661e-07
9.26811e-07
9.26829e-07
9.2683e-07
9.26801e-07
9.17862e-07
9.17147e-07
9.17085e-07
9.17133e-07
9.17875e-07
9.17895e-07
9.17876e-07
9.17247e-07
9.16825e-07
9.15694e-07
9.15695e-07
9.15694e-07
9.16976e-07
9.17266e-07
9.17888e-07
9.17247e-07
9.16788e-07
9.15694e-07
9.15696e-07
9.15695e-07
9.15696e-07
9.15694e-07
9.16953e-07
9.17264e-07
9.17891e-07
9.17862e-07
9.16825e-07
9.15694e-07
9.15695e-07
9.15695e-07
9.15695e-07
9.15695e-07
9.15695e-07
9.15694e-07
9.16978e-07
9.1735e-07
9.17908e-07
9.17147e-07
9.15694e-07
9.15696e-07
9.15695e-07
9.15696e-07
9.15695e-07
9.15696e-07
9.15695e-07
9.15696e-07
9.15694e-07
9.17408e-07
9.18058e-07
9.17085e-07
9.15695e-07
9.15695e-07
9.15695e-07
9.15695e-07
9.15695e-07
9.15695e-07
9.15695e-07
9.15695e-07
9.15695e-07
9.17399e-07
9.18076e-07
9.17133e-07
9.15694e-07
9.15696e-07
9.15695e-07
9.15696e-07
9.15695e-07
9.15696e-07
9.15695e-07
9.15696e-07
9.15694e-07
9.17402e-07
9.18076e-07
9.17875e-07
9.16976e-07
9.15694e-07
9.15695e-07
9.15695e-07
9.15695e-07
9.15695e-07
9.15695e-07
9.15694e-07
9.17194e-07
9.17399e-07
9.18047e-07
9.17895e-07
9.17266e-07
9.16953e-07
9.15694e-07
9.15696e-07
9.15695e-07
9.15696e-07
9.15694e-07
9.17161e-07
9.17319e-07
9.17442e-07
9.17888e-07
9.17264e-07
9.16978e-07
9.15694e-07
9.15695e-07
9.15694e-07
9.17194e-07
9.17319e-07
9.17417e-07
9.18029e-07
9.17891e-07
9.1735e-07
9.17408e-07
9.17399e-07
9.17402e-07
9.17399e-07
9.17442e-07
9.18029e-07
9.17908e-07
9.18058e-07
9.18076e-07
9.18076e-07
9.18047e-07
9.09108e-07
9.08393e-07
9.08331e-07
9.08379e-07
9.09121e-07
9.09141e-07
9.09123e-07
9.08494e-07
9.08071e-07
9.06941e-07
9.06941e-07
9.06941e-07
9.08222e-07
9.08513e-07
9.09134e-07
9.08494e-07
9.08034e-07
9.06941e-07
9.06943e-07
9.06942e-07
9.06943e-07
9.06941e-07
9.08199e-07
9.0851e-07
9.09138e-07
9.09108e-07
9.08071e-07
9.06941e-07
9.06942e-07
9.06941e-07
9.06942e-07
9.06941e-07
9.06942e-07
9.06941e-07
9.08225e-07
9.08597e-07
9.09154e-07
9.08393e-07
9.06941e-07
9.06943e-07
9.06941e-07
9.06943e-07
9.06941e-07
9.06943e-07
9.06941e-07
9.06943e-07
9.06941e-07
9.08654e-07
9.09305e-07
9.08331e-07
9.06941e-07
9.06942e-07
9.06942e-07
9.06941e-07
9.06942e-07
9.06941e-07
9.06942e-07
9.06942e-07
9.06941e-07
9.08646e-07
9.09323e-07
9.08379e-07
9.06941e-07
9.06943e-07
9.06941e-07
9.06943e-07
9.06941e-07
9.06943e-07
9.06941e-07
9.06943e-07
9.06941e-07
9.08648e-07
9.09323e-07
9.09121e-07
9.08222e-07
9.06941e-07
9.06942e-07
9.06941e-07
9.06942e-07
9.06941e-07
9.06942e-07
9.06941e-07
9.0844e-07
9.08646e-07
9.09294e-07
9.09141e-07
9.08513e-07
9.08199e-07
9.06941e-07
9.06943e-07
9.06942e-07
9.06943e-07
9.06941e-07
9.08407e-07
9.08566e-07
9.08688e-07
9.09134e-07
9.0851e-07
9.08225e-07
9.06941e-07
9.06941e-07
9.06941e-07
9.0844e-07
9.08566e-07
9.08664e-07
9.09275e-07
9.09138e-07
9.08597e-07
9.08654e-07
9.08646e-07
9.08648e-07
9.08646e-07
9.08688e-07
9.09275e-07
9.09154e-07
9.09305e-07
9.09323e-07
9.09323e-07
9.09294e-07
9.00355e-07
8.9964e-07
8.99578e-07
8.99626e-07
9.00368e-07
9.00388e-07
9.0037e-07
8.9974e-07
8.99318e-07
8.98187e-07
8.98188e-07
8.98187e-07
8.99469e-07
8.9976e-07
9.00381e-07
8.9974e-07
8.99281e-07
8.98188e-07
8.98189e-07
8.98188e-07
8.98189e-07
8.98188e-07
8.99446e-07
8.99757e-07
9.00384e-07
9.00355e-07
8.99318e-07
8.98188e-07
8.98189e-07
8.98188e-07
8.98188e-07
8.98188e-07
8.98188e-07
8.98188e-07
8.99471e-07
8.99843e-07
9.00401e-07
8.9964e-07
8.98187e-07
8.98189e-07
8.98188e-07
8.98189e-07
8.98188e-07
8.98189e-07
8.98188e-07
8.98189e-07
8.98187e-07
8.99901e-07
9.00551e-07
8.99578e-07
8.98188e-07
8.98188e-07
8.98188e-07
8.98188e-07
8.98188e-07
8.98188e-07
8.98188e-07
8.98188e-07
8.98188e-07
8.99893e-07
9.00569e-07
8.99626e-07
8.98187e-07
8.98189e-07
8.98188e-07
8.98189e-07
8.98188e-07
8.98189e-07
8.98188e-07
8.98189e-07
8.98187e-07
8.99895e-07
9.0057e-07
9.00368e-07
8.99469e-07
8.98188e-07
8.98189e-07
8.98188e-07
8.98188e-07
8.98188e-07
8.98188e-07
8.98188e-07
8.99687e-07
8.99892e-07
9.00541e-07
9.00388e-07
8.9976e-07
8.99446e-07
8.98188e-07
8.98189e-07
8.98188e-07
8.98189e-07
8.98188e-07
8.99654e-07
8.99812e-07
8.99935e-07
9.00381e-07
8.99757e-07
8.99471e-07
8.98187e-07
8.98188e-07
8.98187e-07
8.99687e-07
8.99812e-07
8.99911e-07
9.00522e-07
9.00384e-07
8.99843e-07
8.99901e-07
8.99893e-07
8.99895e-07
8.99892e-07
8.99935e-07
9.00522e-07
9.00401e-07
9.00551e-07
9.00569e-07
9.0057e-07
9.00541e-07
8.91602e-07
8.90887e-07
8.90825e-07
8.90873e-07
8.91615e-07
8.91635e-07
8.91616e-07
8.90987e-07
8.90565e-07
8.89434e-07
8.89435e-07
8.89434e-07
8.90716e-07
8.91006e-07
8.91628e-07
8.90987e-07
8.90528e-07
8.89434e-07
8.89436e-07
8.89435e-07
8.89436e-07
8.89434e-07
8.90693e-07
8.91004e-07
8.91631e-07
8.91602e-07
8.90565e-07
8.89434e-07
8.89435e-07
8.89434e-07
8.89435e-07
8.89434e-07
8.89435e-07
8.89434e-07
8.90718e-07
8.9109e-07
8.91648e-07
8.90886e-07
8.89434e-07
8.89436e-07
8.89434e-07
8.89436e-07
8.89435e-07
8.89436e-07
8.89434e-07
8.89436e-07
8.89434e-07
8.91148e-07
8.91798e-07
8.90825e-07
8.89435e-07
8.89435e-07
8.89435e-07
8.89435e-07
8.89435e-07
8.89435e-07
8.89435e-07
8.89435e-07
8.89435e-07
8.91139e-07
8.91816e-07
8.90873e-07
8.89434e-07
8.89436e-07
8.89434e-07
8.89436e-07
8.89435e-07
8.89436e-07
8.89434e-07
8.89436e-07
8.89434e-07
8.91142e-07
8.91816e-07
8.91615e-07
8.90716e-07
8.89434e-07
8.89435e-07
8.89434e-07
8.89435e-07
8.89434e-07
8.89435e-07
8.89434e-07
8.90934e-07
8.91139e-07
8.91787e-07
8.91635e-07
8.91006e-07
8.90693e-07
8.89434e-07
8.89436e-07
8.89435e-07
8.89436e-07
8.89434e-07
8.90901e-07
8.91059e-07
8.91182e-07
8.91628e-07
8.91004e-07
8.90718e-07
8.89434e-07
8.89435e-07
8.89434e-07
8.90934e-07
8.91059e-07
8.91157e-07
8.91769e-07
8.91631e-07
8.9109e-07
8.91148e-07
8.91139e-07
8.91142e-07
8.91139e-07
8.91182e-07
8.91768e-07
8.91648e-07
8.91798e-07
8.91816e-07
8.91816e-07
8.91787e-07
8.82848e-07
8.82133e-07
8.82071e-07
8.82119e-07
8.82861e-07
8.82881e-07
8.82863e-07
8.82234e-07
8.81811e-07
8.80681e-07
8.80681e-07
8.80681e-07
8.81962e-07
8.82253e-07
8.82874e-07
8.82234e-07
8.81774e-07
8.80681e-07
8.80683e-07
8.80681e-07
8.80683e-07
8.80681e-07
8.81939e-07
8.8225e-07
8.82878e-07
8.82848e-07
8.81811e-07
8.80681e-07
8.80682e-07
8.80681e-07
8.80682e-07
8.80681e-07
8.80682e-07
8.80681e-07
8.81965e-07
8.82337e-07
8.82894e-07
8.82133e-07
8.80681e-07
8.80683e-07
8.80681e-07
8.80682e-07
8.80681e-07
8.80682e-07
8.80681e-07
8.80683e-07
8.80681e-07
8.82394e-07
8.83045e-07
8.82071e-07
8.80681e-07
8.80681e-07
8.80682e-07
8.80681e-07
8.80682e-07
8.80681e-07
8.80682e-07
8.80681e-07
8.80681e-07
8.82386e-07
8.83063e-07
8.82119e-07
8.80681e-07
8.80683e-07
8.80681e-07
8.80682e-07
8.80681e-07
8.80682e-07
8.80681e-07
8.80683e-07
8.80681e-07
8.82388e-07
8.83063e-07
8.82861e-07
8.81962e-07
8.80681e-07
8.80682e-07
8.80681e-07
8.80682e-07
8.80681e-07
8.80682e-07
8.80681e-07
8.8218e-07
8.82386e-07
8.83034e-07
8.82881e-07
8.82253e-07
8.81939e-07
8.80681e-07
8.80683e-07
8.80681e-07
8.80683e-07
8.80681e-07
8.82147e-07
8.82305e-07
8.82428e-07
8.82874e-07
8.8225e-07
8.81965e-07
8.80681e-07
8.80681e-07
8.80681e-07
8.8218e-07
8.82305e-07
8.82404e-07
8.83015e-07
8.82877e-07
8.82337e-07
8.82394e-07
8.82386e-07
8.82388e-07
8.82386e-07
8.82428e-07
8.83015e-07
8.82894e-07
8.83045e-07
8.83063e-07
8.83063e-07
8.83034e-07
8.74095e-07
8.7338e-07
8.73318e-07
8.73366e-07
8.74108e-07
8.74128e-07
8.7411e-07
8.7348e-07
8.73058e-07
8.71927e-07
8.71928e-07
8.71927e-07
8.73209e-07
8.735e-07
8.74121e-07
8.7348e-07
8.73021e-07
8.71928e-07
8.71929e-07
8.71928e-07
8.71929e-07
8.71928e-07
8.73186e-07
8.73497e-07
8.74124e-07
8.74095e-07
8.73058e-07
8.71928e-07
8.71928e-07
8.71928e-07
8.71928e-07
8.71928e-07
8.71928e-07
8.71928e-07
8.73211e-07
8.73583e-07
8.74141e-07
8.7338e-07
8.71927e-07
8.71929e-07
8.71928e-07
8.71929e-07
8.71928e-07
8.71929e-07
8.71928e-07
8.71929e-07
8.71927e-07
8.73641e-07
8.74291e-07
8.73318e-07
8.71928e-07
8.71928e-07
8.71928e-07
8.71928e-07
8.71928e-07
8.71928e-07
8.71928e-07
8.71928e-07
8.71928e-07
8.73633e-07
8.74309e-07
8.73366e-07
8.71927e-07
8.71929e-07
8.71928e-07
8.71929e-07
8.71928e-07
8.71929e-07
8.71928e-07
8.71929e-07
8.71927e-07
8.73635e-07
8.74309e-07
8.74108e-07
8.73209e-07
8.71928e-07
8.71928e-07
8.71928e-07
8.71928e-07
8.71928e-07
8.71928e-07
8.71928e-07
8.73427e-07
8.73632e-07
8.7428e-07
8.74128e-07
8.73499e-07
8.73186e-07
8.71928e-07
8.71929e-07
8.71928e-07
8.71929e-07
8.71928e-07
8.73394e-07
8.73552e-07
8.73675e-07
8.74121e-07
8.73497e-07
8.73211e-07
8.71927e-07
8.71928e-07
8.71927e-07
8.73427e-07
8.73552e-07
8.73651e-07
8.74262e-07
8.74124e-07
8.73583e-07
8.73641e-07
8.73633e-07
8.73635e-07
8.73632e-07
8.73675e-07
8.74262e-07
8.74141e-07
8.74291e-07
8.74309e-07
8.74309e-07
8.7428e-07
8.65341e-07
8.64626e-07
8.64565e-07
8.64613e-07
8.65355e-07
8.65374e-07
8.65356e-07
8.64727e-07
8.64304e-07
8.63174e-07
8.63175e-07
8.63174e-07
8.64455e-07
8.64746e-07
8.65368e-07
8.64727e-07
8.64267e-07
8.63174e-07
8.63176e-07
8.63175e-07
8.63176e-07
8.63174e-07
8.64433e-07
8.64744e-07
8.65371e-07
8.65341e-07
8.64304e-07
8.63174e-07
8.63175e-07
8.63174e-07
8.63175e-07
8.63174e-07
8.63175e-07
8.63174e-07
8.64458e-07
8.6483e-07
8.65388e-07
8.64626e-07
8.63174e-07
8.63176e-07
8.63174e-07
8.63176e-07
8.63174e-07
8.63176e-07
8.63174e-07
8.63176e-07
8.63174e-07
8.64888e-07
8.65538e-07
8.64565e-07
8.63175e-07
8.63175e-07
8.63175e-07
8.63174e-07
8.63175e-07
8.63175e-07
8.63175e-07
8.63175e-07
8.63175e-07
8.64879e-07
8.65556e-07
8.64612e-07