/*--------------------------------*- C++ -*----------------------------------*\
| =========                 |                                                 |
| \\      /  F ield         | OpenFOAM: The Open Source CFD Toolbox           |
|  \\    /   O peration     | Version:  v2012                                 |
|   \\  /    A nd           | Website:  www.openfoam.com                      |
|    \\/     M anipulation  |                                                 |
\*---------------------------------------------------------------------------*/
FoamFile
{
    version     2.0;
    format      ascii;
    class       volScalarField;
    location    "82";
    object      p;
}
// * * * * * * * * * * * * * * * * * * * * * * * * * * * * * * * * * * * * * //

dimensions      [0 2 -2 0 0 0 0];


internalField   nonuniform List<scalar> 
292667
(
1.00267e-06
9.93897e-07
9.93266e-07
9.93321e-07
9.9416e-07
1.0035e-06
9.94099e-07
9.91955e-07
9.90685e-07
9.90161e-07
9.90227e-07
9.90907e-07
9.92362e-07
9.94684e-07
9.94099e-07
9.91335e-07
9.89584e-07
9.88613e-07
9.88203e-07
9.88257e-07
9.88786e-07
9.89911e-07
9.91874e-07
9.94826e-07
1.00267e-06
9.91955e-07
9.89583e-07
9.88159e-07
9.87361e-07
9.87019e-07
9.87065e-07
9.87508e-07
9.88434e-07
9.90047e-07
9.92689e-07
1.00208e-06
9.93897e-07
9.90685e-07
9.88613e-07
9.87361e-07
9.86651e-07
9.86344e-07
9.86386e-07
9.86784e-07
9.8761e-07
9.8903e-07
9.91368e-07
9.97119e-07
9.93266e-07
9.9016e-07
9.88203e-07
9.87019e-07
9.86344e-07
9.8605e-07
9.86091e-07
9.86472e-07
9.87258e-07
9.88603e-07
9.90823e-07
9.95649e-07
9.93321e-07
9.90227e-07
9.88257e-07
9.87065e-07
9.86386e-07
9.86091e-07
9.86132e-07
9.86516e-07
9.87308e-07
9.88664e-07
9.90902e-07
9.9594e-07
9.9416e-07
9.90907e-07
9.88786e-07
9.87507e-07
9.86784e-07
9.86472e-07
9.86516e-07
9.86923e-07
9.87768e-07
9.89225e-07
9.91627e-07
9.97399e-07
1.0035e-06
9.92362e-07
9.89911e-07
9.88434e-07
9.8761e-07
9.87258e-07
9.87307e-07
9.87768e-07
9.88733e-07
9.90419e-07
9.93152e-07
1.00191e-06
9.94684e-07
9.91873e-07
9.90047e-07
9.8903e-07
9.88603e-07
9.88663e-07
9.89224e-07
9.90419e-07
9.92489e-07
9.98066e-07
9.94826e-07
9.92688e-07
9.91368e-07
9.90822e-07
9.90902e-07
9.91627e-07
9.93152e-07
9.98066e-07
1.00208e-06
9.97119e-07
9.95649e-07
9.9594e-07
9.97399e-07
1.00191e-06
9.79698e-07
9.79116e-07
9.79101e-07
9.79158e-07
9.79755e-07
9.79604e-07
9.79718e-07
9.79282e-07
9.78969e-07
9.77927e-07
9.77911e-07
9.77927e-07
9.79133e-07
9.7935e-07
9.79785e-07
9.79282e-07
9.78948e-07
9.77959e-07
9.77921e-07
9.77957e-07
9.77922e-07
9.7796e-07
9.7912e-07
9.79342e-07
9.79774e-07
9.79698e-07
9.78969e-07
9.77959e-07
9.77903e-07
9.77923e-07
9.77902e-07
9.77923e-07
9.77903e-07
9.7796e-07
9.79124e-07
9.79378e-07
9.79781e-07
9.79116e-07
9.77927e-07
9.77921e-07
9.77923e-07
9.77882e-07
9.77886e-07
9.77882e-07
9.77923e-07
9.77922e-07
9.77928e-07
9.79542e-07
9.79966e-07
9.79101e-07
9.77911e-07
9.77956e-07
9.77902e-07
9.77886e-07
9.77875e-07
9.77886e-07
9.77902e-07
9.77957e-07
9.77911e-07
9.79565e-07
9.79919e-07
9.79158e-07
9.77927e-07
9.77922e-07
9.77923e-07
9.77882e-07
9.77886e-07
9.77882e-07
9.77923e-07
9.77922e-07
9.77927e-07
9.79557e-07
9.79935e-07
9.79755e-07
9.79133e-07
9.7796e-07
9.77903e-07
9.77923e-07
9.77902e-07
9.77923e-07
9.77903e-07
9.7796e-07
9.79332e-07
9.79448e-07
9.79924e-07
9.79604e-07
9.7935e-07
9.7912e-07
9.7796e-07
9.77922e-07
9.77957e-07
9.77922e-07
9.7796e-07
9.793e-07
9.79416e-07
9.79404e-07
9.79785e-07
9.79342e-07
9.79124e-07
9.77928e-07
9.77911e-07
9.77927e-07
9.79332e-07
9.79416e-07
9.79435e-07
9.79874e-07
9.79773e-07
9.79378e-07
9.79542e-07
9.79565e-07
9.79558e-07
9.79448e-07
9.79404e-07
9.79874e-07
9.79781e-07
9.79966e-07
9.79919e-07
9.79935e-07
9.79924e-07
9.71365e-07
9.70726e-07
9.70673e-07
9.70718e-07
9.71392e-07
9.71396e-07
9.71371e-07
9.70818e-07
9.70452e-07
9.69455e-07
9.69454e-07
9.69455e-07
9.70611e-07
9.70859e-07
9.71395e-07
9.70818e-07
9.70428e-07
9.69492e-07
9.69498e-07
9.69528e-07
9.69499e-07
9.69492e-07
9.70607e-07
9.70859e-07
9.71396e-07
9.71365e-07
9.70452e-07
9.69492e-07
9.69512e-07
9.6955e-07
9.69546e-07
9.69551e-07
9.69512e-07
9.69492e-07
9.7062e-07
9.70926e-07
9.71406e-07
9.70726e-07
9.69455e-07
9.69499e-07
9.69551e-07
9.69557e-07
9.69576e-07
9.69557e-07
9.69551e-07
9.69499e-07
9.69456e-07
9.71007e-07
9.71567e-07
9.70673e-07
9.69454e-07
9.69528e-07
9.69547e-07
9.69576e-07
9.69577e-07
9.69576e-07
9.69547e-07
9.69529e-07
9.69454e-07
9.71015e-07
9.71591e-07
9.70719e-07
9.69456e-07
9.69499e-07
9.69551e-07
9.69557e-07
9.69576e-07
9.69557e-07
9.69551e-07
9.69499e-07
9.69456e-07
9.71011e-07
9.71591e-07
9.71392e-07
9.70611e-07
9.69492e-07
9.69512e-07
9.69551e-07
9.69547e-07
9.69551e-07
9.69512e-07
9.69492e-07
9.70837e-07
9.70983e-07
9.71551e-07
9.71396e-07
9.70859e-07
9.70607e-07
9.69492e-07
9.69499e-07
9.69529e-07
9.69499e-07
9.69492e-07
9.70816e-07
9.70924e-07
9.71e-07
9.71395e-07
9.70859e-07
9.7062e-07
9.69456e-07
9.69454e-07
9.69456e-07
9.70837e-07
9.70924e-07
9.70984e-07
9.71525e-07
9.71396e-07
9.70926e-07
9.71007e-07
9.71015e-07
9.71011e-07
9.70983e-07
9.71001e-07
9.71525e-07
9.71406e-07
9.71567e-07
9.71591e-07
9.71591e-07
9.71551e-07
9.63055e-07
9.62406e-07
9.6235e-07
9.62396e-07
9.6308e-07
9.63087e-07
9.63062e-07
9.62496e-07
9.62111e-07
9.61097e-07
9.61099e-07
9.61097e-07
9.62263e-07
9.62525e-07
9.63085e-07
9.62496e-07
9.62079e-07
9.61117e-07
9.61131e-07
9.61145e-07
9.61131e-07
9.61117e-07
9.62249e-07
9.62523e-07
9.63087e-07
9.63055e-07
9.62111e-07
9.61117e-07
9.6114e-07
9.61168e-07
9.61168e-07
9.61168e-07
9.6114e-07
9.61117e-07
9.62269e-07
9.62604e-07
9.63097e-07
9.62406e-07
9.61097e-07
9.61132e-07
9.61168e-07
9.61182e-07
9.61196e-07
9.61182e-07
9.61168e-07
9.61132e-07
9.61097e-07
9.62677e-07
9.63256e-07
9.6235e-07
9.61099e-07
9.61145e-07
9.61168e-07
9.61196e-07
9.61198e-07
9.61196e-07
9.61168e-07
9.61145e-07
9.61099e-07
9.62677e-07
9.63279e-07
9.62396e-07
9.61097e-07
9.61131e-07
9.61168e-07
9.61182e-07
9.61196e-07
9.61182e-07
9.61168e-07
9.61132e-07
9.61097e-07
9.62675e-07
9.63279e-07
9.6308e-07
9.62263e-07
9.61117e-07
9.6114e-07
9.61168e-07
9.61168e-07
9.61168e-07
9.6114e-07
9.61117e-07
9.62487e-07
9.62658e-07
9.6324e-07
9.63087e-07
9.62525e-07
9.62249e-07
9.61117e-07
9.61132e-07
9.61145e-07
9.61132e-07
9.61117e-07
9.62461e-07
9.62585e-07
9.62687e-07
9.63085e-07
9.62523e-07
9.62269e-07
9.61097e-07
9.61099e-07
9.61097e-07
9.62487e-07
9.62586e-07
9.62665e-07
9.63218e-07
9.63087e-07
9.62604e-07
9.62677e-07
9.62677e-07
9.62675e-07
9.62658e-07
9.62687e-07
9.63218e-07
9.63097e-07
9.63256e-07
9.63279e-07
9.63279e-07
9.6324e-07
9.54745e-07
9.54093e-07
9.54035e-07
9.54081e-07
9.54769e-07
9.54778e-07
9.54753e-07
9.54182e-07
9.5379e-07
9.52767e-07
9.52768e-07
9.52767e-07
9.53941e-07
9.54208e-07
9.54775e-07
9.54182e-07
9.53754e-07
9.52777e-07
9.52788e-07
9.52794e-07
9.52788e-07
9.52777e-07
9.53921e-07
9.54205e-07
9.54778e-07
9.54744e-07
9.5379e-07
9.52777e-07
9.52793e-07
9.52809e-07
9.52811e-07
9.52809e-07
9.52793e-07
9.52777e-07
9.53945e-07
9.5429e-07
9.54787e-07
9.54093e-07
9.52767e-07
9.52788e-07
9.52809e-07
9.52821e-07
9.52829e-07
9.52821e-07
9.52809e-07
9.52788e-07
9.52767e-07
9.54361e-07
9.54946e-07
9.54035e-07
9.52769e-07
9.52794e-07
9.52811e-07
9.52829e-07
9.52832e-07
9.52829e-07
9.52811e-07
9.52794e-07
9.52769e-07
9.54358e-07
9.54969e-07
9.54081e-07
9.52767e-07
9.52788e-07
9.52809e-07
9.52821e-07
9.52829e-07
9.52821e-07
9.52809e-07
9.52788e-07
9.52767e-07
9.54358e-07
9.54968e-07
9.54769e-07
9.53941e-07
9.52777e-07
9.52793e-07
9.52809e-07
9.52811e-07
9.52809e-07
9.52793e-07
9.52777e-07
9.54163e-07
9.54344e-07
9.5493e-07
9.54778e-07
9.54208e-07
9.53921e-07
9.52777e-07
9.52788e-07
9.52794e-07
9.52788e-07
9.52777e-07
9.54134e-07
9.54267e-07
9.54377e-07
9.54775e-07
9.54205e-07
9.53945e-07
9.52767e-07
9.52768e-07
9.52767e-07
9.54163e-07
9.54267e-07
9.54353e-07
9.54909e-07
9.54778e-07
9.5429e-07
9.54361e-07
9.54358e-07
9.54358e-07
9.54344e-07
9.54377e-07
9.54909e-07
9.54787e-07
9.54946e-07
9.54969e-07
9.54968e-07
9.5493e-07
9.46432e-07
9.45779e-07
9.45721e-07
9.45768e-07
9.46457e-07
9.46466e-07
9.46441e-07
9.45868e-07
9.45473e-07
9.44446e-07
9.44448e-07
9.44446e-07
9.45624e-07
9.45893e-07
9.46464e-07
9.45868e-07
9.45436e-07
9.44451e-07
9.44458e-07
9.44461e-07
9.44458e-07
9.44451e-07
9.45603e-07
9.45891e-07
9.46466e-07
9.46432e-07
9.45473e-07
9.44452e-07
9.44461e-07
9.4447e-07
9.44471e-07
9.4447e-07
9.44461e-07
9.44451e-07
9.45627e-07
9.45977e-07
9.46475e-07
9.45779e-07
9.44446e-07
9.44459e-07
9.4447e-07
9.44478e-07
9.44483e-07
9.44478e-07
9.4447e-07
9.44458e-07
9.44446e-07
9.46047e-07
9.46634e-07
9.45721e-07
9.44447e-07
9.44461e-07
9.44472e-07
9.44482e-07
9.44484e-07
9.44482e-07
9.44472e-07
9.44461e-07
9.44447e-07
9.46043e-07
9.46656e-07
9.45768e-07
9.44446e-07
9.44458e-07
9.4447e-07
9.44478e-07
9.44483e-07
9.44478e-07
9.4447e-07
9.44458e-07
9.44446e-07
9.46043e-07
9.46656e-07
9.46457e-07
9.45624e-07
9.44451e-07
9.44461e-07
9.4447e-07
9.44472e-07
9.4447e-07
9.44461e-07
9.44451e-07
9.45846e-07
9.46031e-07
9.46618e-07
9.46466e-07
9.45893e-07
9.45603e-07
9.44451e-07
9.44459e-07
9.44461e-07
9.44459e-07
9.44451e-07
9.45815e-07
9.45952e-07
9.46065e-07
9.46463e-07
9.45891e-07
9.45627e-07
9.44446e-07
9.44447e-07
9.44446e-07
9.45846e-07
9.45952e-07
9.46041e-07
9.46597e-07
9.46466e-07
9.45977e-07
9.46047e-07
9.46043e-07
9.46043e-07
9.46031e-07
9.46065e-07
9.46598e-07
9.46475e-07
9.46634e-07
9.46656e-07
9.46656e-07
9.46618e-07
9.38119e-07
9.37465e-07
9.37406e-07
9.37454e-07
9.38144e-07
9.38153e-07
9.38128e-07
9.37554e-07
9.37158e-07
9.36129e-07
9.3613e-07
9.36129e-07
9.37309e-07
9.3758e-07
9.38151e-07
9.37554e-07
9.37121e-07
9.36132e-07
9.36136e-07
9.36137e-07
9.36136e-07
9.36132e-07
9.37287e-07
9.37577e-07
9.38153e-07
9.38119e-07
9.37158e-07
9.36132e-07
9.36138e-07
9.36142e-07
9.36143e-07
9.36142e-07
9.36138e-07
9.36132e-07
9.37312e-07
9.37664e-07
9.38162e-07
9.37465e-07
9.36129e-07
9.36137e-07
9.36142e-07
9.36148e-07
9.3615e-07
9.36148e-07
9.36142e-07
9.36136e-07
9.36129e-07
9.37733e-07
9.38321e-07
9.37406e-07
9.3613e-07
9.36137e-07
9.36143e-07
9.36149e-07
9.36151e-07
9.36149e-07
9.36143e-07
9.36137e-07
9.3613e-07
9.37728e-07
9.38343e-07
9.37454e-07
9.36129e-07
9.36136e-07
9.36142e-07
9.36148e-07
9.3615e-07
9.36148e-07
9.36142e-07
9.36136e-07
9.36129e-07
9.37728e-07
9.38342e-07
9.38144e-07
9.37309e-07
9.36132e-07
9.36138e-07
9.36142e-07
9.36144e-07
9.36142e-07
9.36138e-07
9.36132e-07
9.37531e-07
9.37717e-07
9.38305e-07
9.38153e-07
9.3758e-07
9.37287e-07
9.36132e-07
9.36137e-07
9.36137e-07
9.36137e-07
9.36132e-07
9.37499e-07
9.37638e-07
9.37752e-07
9.38151e-07
9.37577e-07
9.37312e-07
9.36129e-07
9.3613e-07
9.36129e-07
9.37531e-07
9.37638e-07
9.37728e-07
9.38285e-07
9.38153e-07
9.37664e-07
9.37733e-07
9.37728e-07
9.37728e-07
9.37717e-07
9.37752e-07
9.38285e-07
9.38162e-07
9.38321e-07
9.38343e-07
9.38342e-07
9.38305e-07
9.29806e-07
9.29151e-07
9.29092e-07
9.2914e-07
9.2983e-07
9.29839e-07
9.29814e-07
9.2924e-07
9.28844e-07
9.27813e-07
9.27815e-07
9.27813e-07
9.28995e-07
9.29266e-07
9.29837e-07
9.2924e-07
9.28806e-07
9.27815e-07
9.27818e-07
9.27818e-07
9.27818e-07
9.27815e-07
9.28972e-07
9.29263e-07
9.2984e-07
9.29806e-07
9.28844e-07
9.27815e-07
9.27819e-07
9.27821e-07
9.27822e-07
9.27821e-07
9.27819e-07
9.27815e-07
9.28998e-07
9.2935e-07
9.29848e-07
9.29151e-07
9.27813e-07
9.27818e-07
9.27821e-07
9.27824e-07
9.27825e-07
9.27824e-07
9.27821e-07
9.27818e-07
9.27813e-07
9.29419e-07
9.30007e-07
9.29092e-07
9.27815e-07
9.27818e-07
9.27822e-07
9.27825e-07
9.27826e-07
9.27825e-07
9.27822e-07
9.27818e-07
9.27815e-07
9.29414e-07
9.30029e-07
9.2914e-07
9.27813e-07
9.27818e-07
9.27821e-07
9.27824e-07
9.27825e-07
9.27824e-07
9.27821e-07
9.27818e-07
9.27814e-07
9.29415e-07
9.30029e-07
9.2983e-07
9.28995e-07
9.27815e-07
9.27819e-07
9.27821e-07
9.27822e-07
9.27821e-07
9.27819e-07
9.27815e-07
9.29217e-07
9.29404e-07
9.29991e-07
9.29839e-07
9.29266e-07
9.28972e-07
9.27815e-07
9.27818e-07
9.27818e-07
9.27818e-07
9.27815e-07
9.29184e-07
9.29324e-07
9.29439e-07
9.29837e-07
9.29263e-07
9.28998e-07
9.27814e-07
9.27815e-07
9.27814e-07
9.29217e-07
9.29324e-07
9.29414e-07
9.29972e-07
9.2984e-07
9.2935e-07
9.29419e-07
9.29414e-07
9.29415e-07
9.29404e-07
9.29438e-07
9.29971e-07
9.29848e-07
9.30007e-07
9.30029e-07
9.30029e-07
9.29991e-07
9.21492e-07
9.20837e-07
9.20778e-07
9.20826e-07
9.21516e-07
9.21526e-07
9.21501e-07
9.20926e-07
9.20529e-07
9.19499e-07
9.19499e-07
9.19499e-07
9.20681e-07
9.20952e-07
9.21524e-07
9.20926e-07
9.20491e-07
9.195e-07
9.19502e-07
9.19502e-07
9.19502e-07
9.195e-07
9.20658e-07
9.20949e-07
9.21527e-07
9.21492e-07
9.20529e-07
9.195e-07
9.19502e-07
9.19503e-07
9.19504e-07
9.19503e-07
9.19502e-07
9.195e-07
9.20684e-07
9.21036e-07
9.21535e-07
9.20837e-07
9.19499e-07
9.19502e-07
9.19503e-07
9.19505e-07
9.19505e-07
9.19505e-07
9.19503e-07
9.19502e-07
9.19499e-07
9.21105e-07
9.21694e-07
9.20778e-07
9.195e-07
9.19502e-07
9.19504e-07
9.19505e-07
9.19506e-07
9.19505e-07
9.19504e-07
9.19502e-07
9.195e-07
9.211e-07
9.21715e-07
9.20826e-07
9.19499e-07
9.19502e-07
9.19503e-07
9.19505e-07
9.19506e-07
9.19505e-07
9.19503e-07
9.19502e-07
9.19499e-07
9.21101e-07
9.21715e-07
9.21516e-07
9.20681e-07
9.195e-07
9.19502e-07
9.19503e-07
9.19504e-07
9.19503e-07
9.19502e-07
9.195e-07
9.20902e-07
9.2109e-07
9.21677e-07
9.21526e-07
9.20952e-07
9.20658e-07
9.195e-07
9.19502e-07
9.19502e-07
9.19502e-07
9.195e-07
9.2087e-07
9.2101e-07
9.21125e-07
9.21524e-07
9.20949e-07
9.20684e-07
9.19499e-07
9.195e-07
9.19499e-07
9.20902e-07
9.2101e-07
9.211e-07
9.21658e-07
9.21527e-07
9.21036e-07
9.21105e-07
9.211e-07
9.21101e-07
9.2109e-07
9.21125e-07
9.21658e-07
9.21535e-07
9.21694e-07
9.21715e-07
9.21715e-07
9.21677e-07
9.13178e-07
9.12523e-07
9.12464e-07
9.12511e-07
9.13202e-07
9.13211e-07
9.13187e-07
9.12612e-07
9.12215e-07
9.11184e-07
9.11185e-07
9.11184e-07
9.12367e-07
9.12638e-07
9.1321e-07
9.12612e-07
9.12177e-07
9.11185e-07
9.11187e-07
9.11186e-07
9.11187e-07
9.11185e-07
9.12344e-07
9.12635e-07
9.13213e-07
9.13178e-07
9.12215e-07
9.11185e-07
9.11187e-07
9.11187e-07
9.11188e-07
9.11187e-07
9.11187e-07
9.11185e-07
9.12369e-07
9.12722e-07
9.13221e-07
9.12523e-07
9.11184e-07
9.11187e-07
9.11187e-07
9.11188e-07
9.11188e-07
9.11188e-07
9.11187e-07
9.11187e-07
9.11184e-07
9.12791e-07
9.13379e-07
9.12464e-07
9.11185e-07
9.11186e-07
9.11188e-07
9.11188e-07
9.11189e-07
9.11188e-07
9.11188e-07
9.11186e-07
9.11185e-07
9.12786e-07
9.13401e-07
9.12511e-07
9.11184e-07
9.11187e-07
9.11187e-07
9.11188e-07
9.11188e-07
9.11188e-07
9.11187e-07
9.11187e-07
9.11184e-07
9.12786e-07
9.13401e-07
9.13202e-07
9.12367e-07
9.11185e-07
9.11187e-07
9.11187e-07
9.11188e-07
9.11187e-07
9.11187e-07
9.11185e-07
9.12588e-07
9.12776e-07
9.13363e-07
9.13211e-07
9.12638e-07
9.12344e-07
9.11185e-07
9.11187e-07
9.11186e-07
9.11187e-07
9.11185e-07
9.12555e-07
9.12696e-07
9.12811e-07
9.1321e-07
9.12635e-07
9.12369e-07
9.11184e-07
9.11185e-07
9.11184e-07
9.12588e-07
9.12696e-07
9.12786e-07
9.13344e-07
9.13213e-07
9.12722e-07
9.12791e-07
9.12786e-07
9.12786e-07
9.12776e-07
9.12811e-07
9.13344e-07
9.13221e-07
9.13379e-07
9.13401e-07
9.13401e-07
9.13363e-07
9.04864e-07
9.04209e-07
9.0415e-07
9.04197e-07
9.04888e-07
9.04898e-07
9.04873e-07
9.04298e-07
9.03901e-07
9.0287e-07
9.02871e-07
9.0287e-07
9.04053e-07
9.04324e-07
9.04896e-07
9.04298e-07
9.03863e-07
9.02871e-07
9.02872e-07
9.02871e-07
9.02873e-07
9.02871e-07
9.0403e-07
9.04321e-07
9.04899e-07
9.04864e-07
9.03901e-07
9.02871e-07
9.02872e-07
9.02871e-07
9.02872e-07
9.02871e-07
9.02872e-07
9.0287e-07
9.04055e-07
9.04408e-07
9.04907e-07
9.04209e-07
9.0287e-07
9.02872e-07
9.02872e-07
9.02873e-07
9.02872e-07
9.02873e-07
9.02872e-07
9.02872e-07
9.0287e-07
9.04477e-07
9.05065e-07
9.0415e-07
9.02871e-07
9.02871e-07
9.02872e-07
9.02872e-07
9.02873e-07
9.02872e-07
9.02872e-07
9.02871e-07
9.02871e-07
9.04472e-07
9.05087e-07
9.04197e-07
9.0287e-07
9.02873e-07
9.02871e-07
9.02873e-07
9.02872e-07
9.02873e-07
9.02871e-07
9.02872e-07
9.0287e-07
9.04472e-07
9.05087e-07
9.04888e-07
9.04053e-07
9.02871e-07
9.02872e-07
9.02871e-07
9.02872e-07
9.02871e-07
9.02872e-07
9.0287e-07
9.04274e-07
9.04462e-07
9.05049e-07
9.04898e-07
9.04324e-07
9.0403e-07
9.0287e-07
9.02873e-07
9.02871e-07
9.02873e-07
9.0287e-07
9.04241e-07
9.04382e-07
9.04497e-07
9.04896e-07
9.04321e-07
9.04055e-07
9.0287e-07
9.02871e-07
9.0287e-07
9.04274e-07
9.04382e-07
9.04472e-07
9.0503e-07
9.04899e-07
9.04408e-07
9.04477e-07
9.04472e-07
9.04472e-07
9.04462e-07
9.04497e-07
9.0503e-07
9.04907e-07
9.05065e-07
9.05087e-07
9.05087e-07
9.05049e-07
8.9655e-07
8.95895e-07
8.95836e-07
8.95883e-07
8.96574e-07
8.96584e-07
8.96559e-07
8.95985e-07
8.95587e-07
8.94556e-07
8.94556e-07
8.94556e-07
8.95738e-07
8.9601e-07
8.96582e-07
8.95985e-07
8.95549e-07
8.94556e-07
8.94558e-07
8.94557e-07
8.94558e-07
8.94556e-07
8.95716e-07
8.96007e-07
8.96585e-07
8.9655e-07
8.95587e-07
8.94556e-07
8.94557e-07
8.94557e-07
8.94557e-07
8.94557e-07
8.94557e-07
8.94556e-07
8.95741e-07
8.96094e-07
8.96593e-07
8.95895e-07
8.94556e-07
8.94558e-07
8.94557e-07
8.94559e-07
8.94557e-07
8.94559e-07
8.94557e-07
8.94558e-07
8.94556e-07
8.96163e-07
8.96751e-07
8.95836e-07
8.94557e-07
8.94557e-07
8.94557e-07
8.94557e-07
8.94558e-07
8.94557e-07
8.94557e-07
8.94557e-07
8.94556e-07
8.96158e-07
8.96773e-07
8.95884e-07
8.94556e-07
8.94558e-07
8.94557e-07
8.94559e-07
8.94557e-07
8.94559e-07
8.94557e-07
8.94558e-07
8.94556e-07
8.96158e-07
8.96773e-07
8.96574e-07
8.95739e-07
8.94556e-07
8.94557e-07
8.94557e-07
8.94557e-07
8.94557e-07
8.94557e-07
8.94556e-07
8.9596e-07
8.96148e-07
8.96735e-07
8.96584e-07
8.9601e-07
8.95716e-07
8.94556e-07
8.94558e-07
8.94557e-07
8.94558e-07
8.94556e-07
8.95927e-07
8.96068e-07
8.96183e-07
8.96582e-07
8.96007e-07
8.95741e-07
8.94556e-07
8.94557e-07
8.94556e-07
8.9596e-07
8.96068e-07
8.96158e-07
8.96716e-07
8.96585e-07
8.96094e-07
8.96163e-07
8.96158e-07
8.96158e-07
8.96148e-07
8.96183e-07
8.96716e-07
8.96593e-07
8.96751e-07
8.96773e-07
8.96773e-07
8.96735e-07
8.88236e-07
8.87581e-07
8.87522e-07
8.87569e-07
8.8826e-07
8.8827e-07
8.88245e-07
8.8767e-07
8.87273e-07
8.86242e-07
8.86242e-07
8.86242e-07
8.87424e-07
8.87696e-07
8.88268e-07
8.8767e-07
8.87235e-07
8.86242e-07
8.86244e-07
8.86243e-07
8.86244e-07
8.86242e-07
8.87401e-07
8.87693e-07
8.88271e-07
8.88236e-07
8.87273e-07
8.86242e-07
8.86243e-07
8.86242e-07
8.86243e-07
8.86242e-07
8.86243e-07
8.86242e-07
8.87427e-07
8.8778e-07
8.88279e-07
8.87581e-07
8.86242e-07
8.86244e-07
8.86242e-07
8.86244e-07
8.86243e-07
8.86244e-07
8.86242e-07
8.86244e-07
8.86242e-07
8.87849e-07
8.88437e-07
8.87522e-07
8.86242e-07
8.86243e-07
8.86243e-07
8.86243e-07
8.86243e-07
8.86243e-07
8.86243e-07
8.86243e-07
8.86242e-07
8.87844e-07
8.88459e-07
8.87569e-07
8.86242e-07
8.86244e-07
8.86243e-07
8.86244e-07
8.86243e-07
8.86244e-07
8.86242e-07
8.86244e-07
8.86242e-07
8.87844e-07
8.88459e-07
8.8826e-07
8.87424e-07
8.86242e-07
8.86243e-07
8.86242e-07
8.86243e-07
8.86242e-07
8.86243e-07
8.86242e-07
8.87646e-07
8.87834e-07
8.88421e-07
8.8827e-07
8.87696e-07
8.87401e-07
8.86242e-07
8.86244e-07
8.86243e-07
8.86244e-07
8.86242e-07
8.87613e-07
8.87754e-07
8.87869e-07
8.88268e-07
8.87693e-07
8.87427e-07
8.86242e-07
8.86242e-07
8.86242e-07
8.87646e-07
8.87754e-07
8.87844e-07
8.88402e-07
8.88271e-07
8.8778e-07
8.87849e-07
8.87844e-07
8.87844e-07
8.87834e-07
8.87869e-07
8.88402e-07
8.88279e-07
8.88437e-07
8.88459e-07
8.88459e-07
8.88421e-07
8.79922e-07
8.79267e-07
8.79208e-07
8.79255e-07
8.79946e-07
8.79955e-07
8.79931e-07
8.79356e-07
8.78959e-07
8.77927e-07
8.77928e-07
8.77927e-07
8.7911e-07
8.79381e-07
8.79954e-07
8.79356e-07
8.78921e-07
8.77928e-07
8.7793e-07
8.77928e-07
8.7793e-07
8.77928e-07
8.79087e-07
8.79379e-07
8.79957e-07
8.79922e-07
8.78959e-07
8.77928e-07
8.77929e-07
8.77928e-07
8.77929e-07
8.77928e-07
8.77929e-07
8.77928e-07
8.79113e-07
8.79466e-07
8.79965e-07
8.79267e-07
8.77927e-07
8.7793e-07
8.77928e-07
8.7793e-07
8.77929e-07
8.7793e-07
8.77928e-07
8.7793e-07
8.77928e-07
8.79535e-07
8.80123e-07
8.79208e-07
8.77928e-07
8.77928e-07
8.77929e-07
8.77929e-07
8.77929e-07
8.77929e-07
8.77929e-07
8.77929e-07
8.77928e-07
8.7953e-07
8.80145e-07
8.79255e-07
8.77928e-07
8.7793e-07
8.77928e-07
8.7793e-07
8.77929e-07
8.7793e-07
8.77928e-07
8.7793e-07
8.77928e-07
8.7953e-07
8.80145e-07
8.79946e-07
8.7911e-07
8.77928e-07
8.77929e-07
8.77928e-07
8.77929e-07
8.77928e-07
8.77929e-07
8.77928e-07
8.79332e-07
8.7952e-07
8.80107e-07
8.79955e-07
8.79381e-07
8.79087e-07
8.77928e-07
8.7793e-07
8.77929e-07
8.7793e-07
8.77928e-07
8.79299e-07
8.7944e-07
8.79555e-07
8.79954e-07
8.79379e-07
8.79113e-07
8.77928e-07
8.77928e-07
8.77928e-07
8.79332e-07
8.7944e-07
8.7953e-07
8.80088e-07
8.79957e-07
8.79466e-07
8.79535e-07
8.7953e-07
8.7953e-07
8.7952e-07
8.79555e-07
8.80088e-07
8.79965e-07
8.80123e-07
8.80145e-07
8.80145e-07
8.80107e-07
8.71608e-07
8.70952e-07
8.70894e-07
8.70941e-07
8.71632e-07
8.71641e-07
8.71616e-07
8.71042e-07
8.70645e-07
8.69613e-07
8.69614e-07
8.69613e-07
8.70796e-07
8.71067e-07
8.7164e-07
8.71042e-07
8.70606e-07
8.69614e-07
8.69616e-07
8.69614e-07
8.69616e-07
8.69614e-07
8.70773e-07
8.71065e-07
8.71642e-07
8.71608e-07
8.70645e-07
8.69614e-07
8.69615e-07
8.69614e-07
8.69614e-07
8.69614e-07
8.69615e-07
8.69614e-07
8.70799e-07
8.71152e-07
8.7165e-07
8.70952e-07
8.69613e-07
8.69616e-07
8.69614e-07
8.69616e-07
8.69614e-07
8.69616e-07
8.69614e-07
8.69616e-07
8.69613e-07
8.71221e-07
8.71809e-07
8.70894e-07
8.69614e-07
8.69614e-07
8.69614e-07
8.69614e-07
8.69614e-07
8.69614e-07
8.69615e-07
8.69614e-07
8.69614e-07
8.71216e-07
8.71831e-07
8.70941e-07
8.69613e-07
8.69616e-07
8.69614e-07
8.69616e-07
8.69614e-07
8.69616e-07
8.69614e-07
8.69616e-07
8.69613e-07
8.71216e-07
8.71831e-07
8.71632e-07
8.70796e-07
8.69614e-07
8.69615e-07
8.69614e-07
8.69615e-07
8.69614e-07
8.69615e-07
8.69614e-07
8.71018e-07
8.71206e-07
8.71793e-07
8.71641e-07
8.71067e-07
8.70773e-07
8.69614e-07
8.69616e-07
8.69614e-07
8.69616e-07
8.69614e-07
8.70985e-07
8.71126e-07
8.71241e-07
8.7164e-07
8.71065e-07
8.70799e-07
8.69613e-07
8.69614e-07
8.69613e-07
8.71018e-07
8.71126e-07
8.71216e-07
8.71774e-07
8.71642e-07
8.71152e-07
8.71221e-07
8.71216e-07
8.71216e-07
8.71206e-07
8.71241e-07
8.71774e-07
8.7165e-07
8.71809e-07
8.71831e-07
8.71831e-07
8.71793e-07
8.63294e-07
8.62638e-07
8.6258e-07
8.62627e-07
8.63318e-07
8.63327e-07
8.63302e-07
8.62728e-07
8.62331e-07
8.61299e-07
8.613e-07
8.61299e-07
8.62482e-07
8.62753e-07
8.63325e-07
8.62728e-07
8.62292e-07
8.613e-07
8.61302e-07
8.613e-07
8.61302e-07
8.613e-07
8.62459e-07
8.62751e-07
8.63328e-07
8.63294e-07
8.62331e-07
8.613e-07
8.61301e-07
8.613e-07
8.613e-07
8.613e-07
8.61301e-07
8.613e-07
8.62485e-07
8.62838e-07
8.63336e-07
8.62638e-07
8.61299e-07
8.61302e-07
8.613e-07
8.61301e-07
8.613e-07
8.61301e-07
8.613e-07
8.61302e-07
8.61299e-07
8.62907e-07
8.63495e-07
8.6258e-07
8.613e-07
8.613e-07
8.613e-07
8.613e-07
8.613e-07
8.613e-07
8.613e-07
8.613e-07
8.613e-07
8.62902e-07
8.63517e-07
8.62627e-07
8.61299e-07
8.61302e-07
8.613e-07
8.61301e-07
8.613e-07
8.61301e-07
8.613e-07
8.61302e-07
8.61299e-07
8.62902e-07
8.63517e-07
8.63318e-07
8.62482e-07
8.613e-07
8.61301e-07
8.613e-07
8.613e-07
8.613e-07
8.61301e-07
8.613e-07
8.62704e-07
8.62892e-07
8.63479e-07
8.63327e-07
8.62753e-07
8.62459e-07
8.613e-07
8.61302e-07
8.613e-07
8.61302e-07
8.613e-07
8.62671e-07
8.62812e-07
8.62927e-07
8.63325e-07
8.62751e-07
8.62485e-07
8.61299e-07
8.613e-07
8.61299e-07
8.62704e-07
8.62812e-07
8.62902e-07
8.6346e-07
8.63328e-07
8.62838e-07
8.62907e-07
8.62902e-07
8.62902e-07
8.62892e-07
8.62927e-07
8.6346e-07
8.63336e-07
8.63495e-07
8.63517e-07
8.63517e-07
8.63479e-07
8.5498e-07
8.54325e-07
8.54266e-07
8.54313e-07
8.55004e-07
8.55013e-07
8.54989e-07
8.54414e-07
8.54017e-07
8.52985e-07
8.52986e-07
8.52985e-07
8.54168e-07
8.54439e-07
8.55011e-07
8.54414e-07
8.53978e-07
8.52986e-07
8.52988e-07
8.52986e-07
8.52988e-07
8.52986e-07
8.54145e-07
8.54437e-07
8.55014e-07
8.5498e-07
8.54017e-07
8.52986e-07
8.52987e-07
8.52986e-07
8.52986e-07
8.52986e-07
8.52987e-07
8.52986e-07
8.54171e-07
8.54524e-07
8.55022e-07
8.54325e-07
8.52985e-07
8.52988e-07
8.52986e-07
8.52987e-07
8.52986e-07
8.52987e-07
8.52986e-07
8.52988e-07
8.52985e-07
8.54593e-07
8.55181e-07
8.54266e-07
8.52986e-07
8.52986e-07
8.52986e-07
8.52986e-07
8.52986e-07
8.52986e-07
8.52986e-07
8.52986e-07
8.52986e-07
8.54588e-07
8.55203e-07
8.54313e-07
8.52985e-07
8.52988e-07
8.52986e-07
8.52987e-07
8.52986e-07
8.52987e-07
8.52986e-07
8.52988e-07
8.52985e-07
8.54588e-07
8.55202e-07
8.55004e-07
8.54168e-07
8.52986e-07
8.52987e-07
8.52986e-07
8.52986e-07
8.52986e-07
8.52987e-07
8.52986e-07
8.54389e-07
8.54578e-07
8.55165e-07
8.55013e-07
8.54439e-07
8.54145e-07
8.52986e-07
8.52988e-07
8.52986e-07
8.52988e-07
8.52986e-07
8.54357e-07
8.54497e-07
8.54612e-07
8.55011e-07
8.54437e-07
8.54171e-07
8.52985e-07
8.52986e-07
8.52985e-07
8.5439e-07
8.54497e-07
8.54588e-07
8.55146e-07
8.55014e-07
8.54524e-07
8.54593e-07
8.54588e-07
8.54588e-07
8.54577e-07
8.54612e-07
8.55145e-07
8.55022e-07
8.55181e-07
8.55203e-07
8.55202e-07
8.55165e-07
8.46666e-07
8.46011e-07
8.45952e-07
8.45999e-07
8.4669e-07
8.46699e-07
8.46675e-07
8.461e-07
8.45703e-07
8.44671e-07
8.44672e-07
8.44671e-07
8.45854e-07
8.46125e-07
8.46697e-07
8.461e-07
8.45664e-07
8.44672e-07
8.44674e-07
8.44672e-07
8.44674e-07
8.44672e-07
8.45831e-07
8.46123e-07
8.467e-07
8.46666e-07
8.45703e-07
8.44672e-07
8.44673e-07
8.44672e-07
8.44672e-07
8.44672e-07
8.44673e-07
8.44672e-07
8.45857e-07
8.4621e-07
8.46708e-07
8.4601e-07
8.44671e-07
8.44674e-07
8.44672e-07
8.44673e-07
8.44672e-07
8.44673e-07
8.44672e-07
8.44673e-07
8.44671e-07
8.46279e-07
8.46867e-07
8.45952e-07
8.44672e-07
8.44672e-07
8.44672e-07
8.44672e-07
8.44672e-07
8.44672e-07
8.44672e-07
8.44672e-07
8.44672e-07
8.46274e-07
8.46889e-07
8.45999e-07
8.44671e-07
8.44674e-07
8.44672e-07
8.44673e-07
8.44672e-07
8.44673e-07
8.44672e-07
8.44673e-07
8.44671e-07
8.46274e-07
8.46888e-07
8.4669e-07
8.45854e-07
8.44672e-07
8.44673e-07
8.44672e-07
8.44672e-07
8.44672e-07
8.44673e-07
8.44672e-07
8.46075e-07
8.46263e-07
8.46851e-07
8.46699e-07
8.46125e-07
8.45831e-07
8.44672e-07
8.44673e-07
8.44672e-07
8.44673e-07
8.44672e-07
8.46043e-07
8.46183e-07
8.46298e-07
8.46697e-07
8.46123e-07
8.45857e-07
8.44671e-07
8.44672e-07
8.44671e-07
8.46075e-07
8.46183e-07
8.46274e-07
8.46831e-07
8.467e-07
8.4621e-07
8.46279e-07
8.46273e-07
8.46274e-07
8.46263e-07
8.46298e-07
8.46831e-07
8.46708e-07
8.46867e-07
8.46889e-07
8.46888e-07
8.46851e-07
8.38352e-07
8.37696e-07
8.37638e-07
8.37685e-07
8.38376e-07
8.38385e-07
8.3836e-07
8.37786e-07
8.37389e-07
8.36357e-07
8.36358e-07
8.36357e-07
8.3754e-07
8.37811e-07
8.38383e-07
8.37786e-07
8.3735e-07
8.36358e-07
8.36359e-07
8.36358e-07
8.36359e-07
8.36358e-07
8.37517e-07
8.37808e-07
8.38386e-07
8.38351e-07
8.37389e-07
8.36358e-07
8.36359e-07
8.36358e-07
8.36358e-07
8.36358e-07
8.36358e-07
8.36358e-07
8.37543e-07
8.37896e-07
8.38394e-07
8.37696e-07
8.36357e-07
8.36359e-07
8.36358e-07
8.36359e-07
8.36358e-07
8.36359e-07
8.36358e-07
8.36359e-07
8.36357e-07
8.37964e-07
8.38553e-07
8.37638e-07
8.36358e-07
8.36358e-07
8.36358e-07
8.36358e-07
8.36358e-07
8.36358e-07
8.36358e-07
8.36358e-07
8.36358e-07
8.37959e-07
8.38575e-07
8.37685e-07
8.36357e-07
8.36359e-07
8.36358e-07
8.36359e-07
8.36358e-07
8.36359e-07
8.36358e-07
8.36359e-07
8.36357e-07
8.3796e-07
8.38574e-07
8.38376e-07
8.3754e-07
8.36358e-07
8.36358e-07
8.36358e-07
8.36358e-07
8.36358e-07
8.36358e-07
8.36358e-07
8.37761e-07
8.37949e-07
8.38537e-07
8.38385e-07
8.37811e-07
8.37517e-07
8.36358e-07
8.36359e-07
8.36358e-07
8.36359e-07
8.36358e-07
8.37728e-07
8.37869e-07
8.37984e-07
8.38383e-07
8.37808e-07
8.37543e-07
8.36357e-07
8.36358e-07
8.36357e-07
8.37761e-07
8.37869e-07
8.3796e-07
8.38517e-07
8.38386e-07
8.37896e-07
8.37964e-07
8.37959e-07
8.3796e-07
8.37949e-07
8.37984e-07
8.38517e-07
8.38394e-07
8.38553e-07
8.38575e-07
8.38574e-07
8.38537e-07
8.30037e-07
8.29382e-07
8.29324e-07
8.29371e-07
8.30062e-07
8.30071e-07
8.30046e-07
8.29472e-07
8.29074e-07
8.28043e-07
8.28044e-07
8.28043e-07
8.29226e-07
8.29497e-07
8.30069e-07
8.29472e-07
8.29036e-07
8.28044e-07
8.28045e-07
8.28044e-07
8.28045e-07
8.28044e-07
8.29203e-07
8.29494e-07
8.30072e-07
8.30037e-07
8.29074e-07
8.28044e-07
8.28044e-07
8.28044e-07
8.28044e-07
8.28044e-07
8.28044e-07
8.28044e-07
8.29229e-07
8.29582e-07
8.3008e-07
8.29382e-07
8.28043e-07
8.28045e-07
8.28044e-07
8.28045e-07
8.28044e-07
8.28045e-07
8.28044e-07
8.28045e-07
8.28043e-07
8.2965e-07
8.30239e-07
8.29323e-07
8.28044e-07
8.28044e-07
8.28044e-07
8.28044e-07
8.28044e-07
8.28044e-07
8.28044e-07
8.28044e-07
8.28044e-07
8.29645e-07
8.30261e-07
8.29371e-07
8.28043e-07
8.28045e-07
8.28044e-07
8.28045e-07
8.28044e-07
8.28045e-07
8.28044e-07
8.28045e-07
8.28043e-07
8.29646e-07
8.3026e-07
8.30062e-07
8.29226e-07
8.28044e-07
8.28044e-07
8.28044e-07
8.28044e-07
8.28044e-07
8.28044e-07
8.28044e-07
8.29447e-07
8.29635e-07
8.30223e-07
8.30071e-07
8.29497e-07
8.29203e-07
8.28044e-07
8.28045e-07
8.28044e-07
8.28045e-07
8.28044e-07
8.29414e-07
8.29555e-07
8.2967e-07
8.30069e-07
8.29494e-07
8.29229e-07
8.28043e-07
8.28044e-07
8.28043e-07
8.29447e-07
8.29555e-07
8.29646e-07
8.30203e-07
8.30072e-07
8.29582e-07
8.2965e-07
8.29645e-07
8.29646e-07
8.29635e-07
8.2967e-07
8.30203e-07
8.3008e-07
8.30239e-07
8.30261e-07
8.3026e-07
8.30223e-07
8.21723e-07
8.21068e-07
8.21009e-07
8.21057e-07
8.21748e-07
8.21757e-07
8.21732e-07
8.21158e-07
8.2076e-07
8.19729e-07
8.1973e-07
8.19729e-07
8.20912e-07
8.21183e-07
8.21755e-07
8.21158e-07
8.20722e-07
8.19729e-07
8.19731e-07
8.1973e-07
8.19731e-07
8.1973e-07
8.20889e-07
8.2118e-07
8.21758e-07
8.21723e-07
8.2076e-07
8.19729e-07
8.1973e-07
8.1973e-07
8.1973e-07
8.1973e-07
8.1973e-07
8.1973e-07
8.20915e-07
8.21268e-07
8.21766e-07
8.21068e-07
8.19729e-07
8.19731e-07
8.1973e-07
8.19731e-07
8.1973e-07
8.19731e-07
8.1973e-07
8.19731e-07
8.19729e-07
8.21336e-07
8.21925e-07
8.21009e-07
8.1973e-07
8.1973e-07
8.1973e-07
8.1973e-07
8.1973e-07
8.1973e-07
8.1973e-07
8.1973e-07
8.1973e-07
8.21331e-07
8.21947e-07
8.21057e-07
8.19729e-07
8.19731e-07
8.1973e-07
8.19731e-07
8.1973e-07
8.19731e-07
8.1973e-07
8.19731e-07
8.19729e-07
8.21332e-07