/*--------------------------------*- C++ -*----------------------------------*\
| =========                 |                                                 |
| \\      /  F ield         | OpenFOAM: The Open Source CFD Toolbox           |
|  \\    /   O peration     | Version:  v2012                                 |
|   \\  /    A nd           | Website:  www.openfoam.com                      |
|    \\/     M anipulation  |                                                 |
\*---------------------------------------------------------------------------*/
FoamFile
{
    version     2.0;
    format      ascii;
    class       volScalarField;
    location    "0";
    object      p;
}
// * * * * * * * * * * * * * * * * * * * * * * * * * * * * * * * * * * * * * //

dimensions      [0 2 -2 0 0 0 0];


internalField   nonuniform List<scalar> 
292667
(
6.52827e-07
6.49821e-07
6.49276e-07
6.49365e-07
6.50027e-07
6.52968e-07
6.49767e-07
6.48582e-07
6.47875e-07
6.47553e-07
6.47612e-07
6.48073e-07
6.48991e-07
6.50393e-07
6.49758e-07
6.48211e-07
6.47285e-07
6.46751e-07
6.46518e-07
6.46563e-07
6.46899e-07
6.47569e-07
6.48704e-07
6.50407e-07
6.52791e-07
6.48566e-07
6.47277e-07
6.4651e-07
6.46071e-07
6.45883e-07
6.45916e-07
6.46176e-07
6.46708e-07
6.47605e-07
6.49121e-07
6.53034e-07
6.49784e-07
6.47852e-07
6.46737e-07
6.46065e-07
6.45679e-07
6.45512e-07
6.45536e-07
6.45755e-07
6.462e-07
6.46949e-07
6.48178e-07
6.51079e-07
6.49235e-07
6.47524e-07
6.46498e-07
6.45871e-07
6.45506e-07
6.45344e-07
6.45363e-07
6.45564e-07
6.4597e-07
6.4664e-07
6.47707e-07
6.49757e-07
6.49319e-07
6.47578e-07
6.46538e-07
6.45899e-07
6.45525e-07
6.45358e-07
6.45376e-07
6.45578e-07
6.4599e-07
6.46668e-07
6.47751e-07
6.49758e-07
6.49975e-07
6.48034e-07
6.46869e-07
6.46154e-07
6.45739e-07
6.45554e-07
6.45573e-07
6.45799e-07
6.46261e-07
6.47045e-07
6.48316e-07
6.51145e-07
6.52903e-07
6.48946e-07
6.47534e-07
6.4668e-07
6.46179e-07
6.45955e-07
6.4598e-07
6.46256e-07
6.46828e-07
6.47773e-07
6.49393e-07
6.53115e-07
6.50339e-07
6.48661e-07
6.47571e-07
6.46921e-07
6.46619e-07
6.46652e-07
6.47034e-07
6.47768e-07
6.49013e-07
6.51349e-07
6.50354e-07
6.49078e-07
6.48143e-07
6.47678e-07
6.47728e-07
6.48298e-07
6.49381e-07
6.51342e-07
6.52973e-07
6.51032e-07
6.49717e-07
6.49724e-07
6.51117e-07
6.53094e-07
6.42254e-07
6.41804e-07
6.41782e-07
6.41794e-07
6.42147e-07
6.42246e-07
6.4233e-07
6.41829e-07
6.41664e-07
6.40902e-07
6.40897e-07
6.40902e-07
6.41556e-07
6.41769e-07
6.42189e-07
6.41827e-07
6.41625e-07
6.40868e-07
6.40853e-07
6.40846e-07
6.40852e-07
6.40867e-07
6.41491e-07
6.41751e-07
6.42177e-07
6.42248e-07
6.4166e-07
6.40866e-07
6.40834e-07
6.40812e-07
6.40803e-07
6.4081e-07
6.40831e-07
6.40861e-07
6.41502e-07
6.41772e-07
6.4225e-07
6.41796e-07
6.40896e-07
6.40849e-07
6.4081e-07
6.40784e-07
6.40774e-07
6.40781e-07
6.40805e-07
6.40841e-07
6.40885e-07
6.41666e-07
6.42153e-07
6.41772e-07
6.4089e-07
6.40841e-07
6.408e-07
6.40772e-07
6.40761e-07
6.40769e-07
6.40793e-07
6.40831e-07
6.40876e-07
6.41616e-07
6.42116e-07
6.41782e-07
6.40893e-07
6.40845e-07
6.40805e-07
6.40777e-07
6.40767e-07
6.40774e-07
6.40798e-07
6.40834e-07
6.40878e-07
6.41627e-07
6.4212e-07
6.42132e-07
6.41544e-07
6.40858e-07
6.40824e-07
6.40799e-07
6.4079e-07
6.40796e-07
6.40817e-07
6.40847e-07
6.41383e-07
6.41698e-07
6.42199e-07
6.42229e-07
6.41755e-07
6.41479e-07
6.40852e-07
6.40834e-07
6.40826e-07
6.40831e-07
6.40845e-07
6.4135e-07
6.41612e-07
6.41805e-07
6.42173e-07
6.41737e-07
6.4149e-07
6.40877e-07
6.4087e-07
6.40873e-07
6.4138e-07
6.4161e-07
6.41794e-07
6.42244e-07
6.42161e-07
6.41758e-07
6.41655e-07
6.41607e-07
6.41619e-07
6.41692e-07
6.41801e-07
6.42242e-07
6.42235e-07
6.42139e-07
6.42104e-07
6.4211e-07
6.42191e-07
6.37138e-07
6.36532e-07
6.36499e-07
6.36513e-07
6.36989e-07
6.37121e-07
6.37216e-07
6.3663e-07
6.36461e-07
6.35426e-07
6.35431e-07
6.35426e-07
6.36282e-07
6.36575e-07
6.37057e-07
6.3663e-07
6.36443e-07
6.35415e-07
6.35427e-07
6.3543e-07
6.35426e-07
6.35413e-07
6.36245e-07
6.36571e-07
6.37046e-07
6.37136e-07
6.3646e-07
6.35414e-07
6.35423e-07
6.35429e-07
6.35431e-07
6.35429e-07
6.35422e-07
6.35411e-07
6.36251e-07
6.36563e-07
6.37148e-07
6.36529e-07
6.35424e-07
6.35426e-07
6.35429e-07
6.35431e-07
6.35431e-07
6.3543e-07
6.35427e-07
6.35423e-07
6.3542e-07
6.36385e-07
6.37019e-07
6.36496e-07
6.35428e-07
6.35429e-07
6.3543e-07
6.35431e-07
6.35431e-07
6.3543e-07
6.35428e-07
6.35425e-07
6.35424e-07
6.3632e-07
6.3698e-07
6.36509e-07
6.35423e-07
6.35424e-07
6.35427e-07
6.35429e-07
6.35429e-07
6.35427e-07
6.35424e-07
6.3542e-07
6.35418e-07
6.36335e-07
6.36981e-07
6.36984e-07
6.36278e-07
6.3541e-07
6.35419e-07
6.35425e-07
6.35426e-07
6.35424e-07
6.35417e-07
6.35407e-07
6.36072e-07
6.36471e-07
6.37095e-07
6.37115e-07
6.3657e-07
6.36241e-07
6.35408e-07
6.3542e-07
6.35423e-07
6.35419e-07
6.35406e-07
6.36056e-07
6.36431e-07
6.36611e-07
6.37051e-07
6.36566e-07
6.36247e-07
6.35418e-07
6.35422e-07
6.35416e-07
6.3607e-07
6.3643e-07
6.36617e-07
6.37146e-07
6.37041e-07
6.36559e-07
6.36382e-07
6.36317e-07
6.36332e-07
6.36469e-07
6.36609e-07
6.37145e-07
6.37143e-07
6.37014e-07
6.36975e-07
6.36977e-07
6.37092e-07
6.31692e-07
6.31081e-07
6.31048e-07
6.31062e-07
6.31542e-07
6.31674e-07
6.31769e-07
6.31179e-07
6.31009e-07
6.29978e-07
6.29981e-07
6.29978e-07
6.3083e-07
6.31125e-07
6.31609e-07
6.31179e-07
6.30991e-07
6.29967e-07
6.29974e-07
6.29977e-07
6.29974e-07
6.29966e-07
6.30793e-07
6.31121e-07
6.31601e-07
6.31691e-07
6.31008e-07
6.29967e-07
6.29971e-07
6.29975e-07
6.29976e-07
6.29974e-07
6.2997e-07
6.29965e-07
6.30802e-07
6.31115e-07
6.31707e-07
6.3108e-07
6.29977e-07
6.29974e-07
6.29974e-07
6.29976e-07
6.29976e-07
6.29975e-07
6.29974e-07
6.29973e-07
6.29976e-07
6.3094e-07
6.31579e-07
6.31047e-07
6.2998e-07
6.29976e-07
6.29975e-07
6.29976e-07
6.29976e-07
6.29976e-07
6.29975e-07
6.29975e-07
6.29979e-07
6.30877e-07
6.3154e-07
6.31061e-07
6.29977e-07
6.29973e-07
6.29974e-07
6.29975e-07
6.29975e-07
6.29975e-07
6.29973e-07
6.29972e-07
6.29975e-07
6.30891e-07
6.31543e-07
6.3154e-07
6.30828e-07
6.29965e-07
6.29969e-07
6.29973e-07
6.29974e-07
6.29973e-07
6.29968e-07
6.29964e-07
6.30626e-07
6.31026e-07
6.31658e-07
6.31672e-07
6.31123e-07
6.30792e-07
6.29964e-07
6.29972e-07
6.29974e-07
6.29971e-07
6.29964e-07
6.3061e-07
6.30986e-07
6.31168e-07
6.31607e-07
6.3112e-07
6.308e-07
6.29975e-07
6.29978e-07
6.29975e-07
6.30626e-07
6.30986e-07
6.31173e-07
6.31707e-07
6.31599e-07
6.31114e-07
6.30938e-07
6.30875e-07
6.3089e-07
6.31025e-07
6.31167e-07
6.31707e-07
6.31705e-07
6.31577e-07
6.31539e-07
6.31541e-07
6.31657e-07
6.2625e-07
6.25637e-07
6.25604e-07
6.25618e-07
6.26099e-07
6.26232e-07
6.26327e-07
6.25735e-07
6.25564e-07
6.24527e-07
6.2453e-07
6.24527e-07
6.25385e-07
6.25681e-07
6.26167e-07
6.25735e-07
6.25546e-07
6.24515e-07
6.24521e-07
6.24523e-07
6.24521e-07
6.24515e-07
6.25348e-07
6.25678e-07
6.26159e-07
6.2625e-07
6.25564e-07
6.24515e-07
6.24517e-07
6.2452e-07
6.2452e-07
6.24519e-07
6.24517e-07
6.24515e-07
6.25357e-07
6.25673e-07
6.26267e-07
6.25637e-07
6.24527e-07
6.24521e-07
6.24519e-07
6.2452e-07
6.2452e-07
6.24519e-07
6.24519e-07
6.24521e-07
6.24527e-07
6.25497e-07
6.26138e-07
6.25604e-07
6.24529e-07
6.24523e-07
6.2452e-07
6.2452e-07
6.24519e-07
6.24519e-07
6.2452e-07
6.24522e-07
6.24529e-07
6.25434e-07
6.26101e-07
6.25618e-07
6.24527e-07
6.24521e-07
6.24519e-07
6.24519e-07
6.24519e-07
6.24519e-07
6.24519e-07
6.2452e-07
6.24526e-07
6.25449e-07
6.26103e-07
6.26099e-07
6.25384e-07
6.24514e-07
6.24517e-07
6.24519e-07
6.2452e-07
6.24519e-07
6.24516e-07
6.24514e-07
6.25182e-07
6.25584e-07
6.26219e-07
6.26232e-07
6.2568e-07
6.25347e-07
6.24514e-07
6.2452e-07
6.24522e-07
6.2452e-07
6.24514e-07
6.25166e-07
6.25544e-07
6.25727e-07
6.26167e-07
6.25677e-07
6.25357e-07
6.24526e-07
6.24529e-07
6.24526e-07
6.25182e-07
6.25544e-07
6.25732e-07
6.26268e-07
6.26158e-07
6.25672e-07
6.25496e-07
6.25433e-07
6.25449e-07
6.25583e-07
6.25726e-07
6.26268e-07
6.26266e-07
6.26138e-07
6.261e-07
6.26103e-07
6.26218e-07
6.20808e-07
6.20194e-07
6.20161e-07
6.20175e-07
6.20657e-07
6.2079e-07
6.20884e-07
6.20292e-07
6.20121e-07
6.19083e-07
6.19085e-07
6.19083e-07
6.19942e-07
6.20238e-07
6.20725e-07
6.20292e-07
6.20103e-07
6.19071e-07
6.19077e-07
6.19079e-07
6.19077e-07
6.1907e-07
6.19905e-07
6.20235e-07
6.20717e-07
6.20808e-07
6.20121e-07
6.19071e-07
6.19073e-07
6.19075e-07
6.19076e-07
6.19075e-07
6.19072e-07
6.1907e-07
6.19915e-07
6.2023e-07
6.20825e-07
6.20194e-07
6.19083e-07
6.19077e-07
6.19075e-07
6.19075e-07
6.19075e-07
6.19074e-07
6.19075e-07
6.19076e-07
6.19083e-07
6.20054e-07
6.20697e-07
6.20161e-07
6.19085e-07
6.19078e-07
6.19075e-07
6.19075e-07
6.19074e-07
6.19074e-07
6.19075e-07
6.19078e-07
6.19085e-07
6.19992e-07
6.20659e-07
6.20175e-07
6.19083e-07
6.19077e-07
6.19075e-07
6.19074e-07
6.19074e-07
6.19074e-07
6.19074e-07
6.19076e-07
6.19083e-07
6.20007e-07
6.20662e-07
6.20657e-07
6.19941e-07
6.1907e-07
6.19072e-07
6.19075e-07
6.19075e-07
6.19074e-07
6.19072e-07
6.1907e-07
6.19739e-07
6.20141e-07
6.20777e-07
6.2079e-07
6.20238e-07
6.19905e-07
6.1907e-07
6.19076e-07
6.19078e-07
6.19076e-07
6.1907e-07
6.19723e-07
6.20102e-07
6.20285e-07
6.20725e-07
6.20235e-07
6.19914e-07
6.19083e-07
6.19085e-07
6.19083e-07
6.19739e-07
6.20102e-07
6.2029e-07
6.20827e-07
6.20717e-07
6.2023e-07
6.20054e-07
6.19991e-07
6.20007e-07
6.20141e-07
6.20285e-07
6.20827e-07
6.20825e-07
6.20696e-07
6.20659e-07
6.20661e-07
6.20777e-07
6.15367e-07
6.14753e-07
6.14721e-07
6.14735e-07
6.15216e-07
6.15349e-07
6.15444e-07
6.14851e-07
6.14681e-07
6.13642e-07
6.13644e-07
6.13642e-07
6.14501e-07
6.14798e-07
6.15284e-07
6.14851e-07
6.14663e-07
6.1363e-07
6.13636e-07
6.13638e-07
6.13636e-07
6.1363e-07
6.14465e-07
6.14795e-07
6.15276e-07
6.15367e-07
6.14681e-07
6.1363e-07
6.13632e-07
6.13634e-07
6.13635e-07
6.13634e-07
6.13632e-07
6.1363e-07
6.14474e-07
6.1479e-07
6.15385e-07
6.14753e-07
6.13642e-07
6.13636e-07
6.13634e-07
6.13634e-07
6.13634e-07
6.13634e-07
6.13634e-07
6.13636e-07
6.13642e-07
6.14614e-07
6.15256e-07
6.14721e-07
6.13644e-07
6.13638e-07
6.13635e-07
6.13634e-07
6.13634e-07
6.13634e-07
6.13635e-07
6.13638e-07
6.13644e-07
6.14551e-07
6.15219e-07
6.14735e-07
6.13642e-07
6.13636e-07
6.13634e-07
6.13634e-07
6.13634e-07
6.13634e-07
6.13634e-07
6.13636e-07
6.13642e-07
6.14567e-07
6.15221e-07
6.15216e-07
6.14501e-07
6.1363e-07
6.13632e-07
6.13634e-07
6.13635e-07
6.13634e-07
6.13632e-07
6.1363e-07
6.14299e-07
6.14701e-07
6.15337e-07
6.15349e-07
6.14798e-07
6.14465e-07
6.1363e-07
6.13636e-07
6.13638e-07
6.13636e-07
6.1363e-07
6.14283e-07
6.14662e-07
6.14845e-07
6.15284e-07
6.14795e-07
6.14474e-07
6.13642e-07
6.13644e-07
6.13642e-07
6.14299e-07
6.14662e-07
6.1485e-07
6.15386e-07
6.15276e-07
6.1479e-07
6.14614e-07
6.14551e-07
6.14567e-07
6.14701e-07
6.14844e-07
6.15386e-07
6.15385e-07
6.15256e-07
6.15219e-07
6.15221e-07
6.15337e-07
6.09928e-07
6.09314e-07
6.09282e-07
6.09296e-07
6.09777e-07
6.0991e-07
6.10005e-07
6.09412e-07
6.09242e-07
6.08203e-07
6.08205e-07
6.08203e-07
6.09062e-07
6.09359e-07
6.09845e-07
6.09412e-07
6.09224e-07
6.08191e-07
6.08197e-07
6.08199e-07
6.08197e-07
6.0819e-07
6.09026e-07
6.09356e-07
6.09837e-07
6.09928e-07
6.09242e-07
6.08191e-07
6.08193e-07
6.08195e-07
6.08196e-07
6.08195e-07
6.08193e-07
6.0819e-07
6.09035e-07
6.09351e-07
6.09946e-07
6.09314e-07
6.08203e-07
6.08197e-07
6.08195e-07
6.08195e-07
6.08195e-07
6.08195e-07
6.08195e-07
6.08197e-07
6.08203e-07
6.09175e-07
6.09817e-07
6.09282e-07
6.08205e-07
6.08199e-07
6.08196e-07
6.08195e-07
6.08195e-07
6.08195e-07
6.08196e-07
6.08199e-07
6.08205e-07
6.09112e-07
6.0978e-07
6.09296e-07
6.08203e-07
6.08197e-07
6.08195e-07
6.08195e-07
6.08195e-07
6.08195e-07
6.08195e-07
6.08197e-07
6.08203e-07
6.09128e-07
6.09782e-07
6.09777e-07
6.09062e-07
6.08191e-07
6.08193e-07
6.08195e-07
6.08196e-07
6.08195e-07
6.08193e-07
6.0819e-07
6.0886e-07
6.09262e-07
6.09898e-07
6.0991e-07
6.09359e-07
6.09026e-07
6.0819e-07
6.08197e-07
6.08199e-07
6.08197e-07
6.0819e-07
6.08845e-07
6.09223e-07
6.09406e-07
6.09845e-07
6.09356e-07
6.09035e-07
6.08203e-07
6.08205e-07
6.08203e-07
6.0886e-07
6.09223e-07
6.09411e-07
6.09947e-07
6.09837e-07
6.09351e-07
6.09175e-07
6.09112e-07
6.09128e-07
6.09262e-07
6.09406e-07
6.09947e-07
6.09946e-07
6.09817e-07
6.0978e-07
6.09782e-07
6.09898e-07
6.04489e-07
6.03876e-07
6.03843e-07
6.03858e-07
6.04339e-07
6.04472e-07
6.04566e-07
6.03974e-07
6.03804e-07
6.02765e-07
6.02767e-07
6.02765e-07
6.03624e-07
6.03921e-07
6.04407e-07
6.03974e-07
6.03786e-07
6.02752e-07
6.02759e-07
6.02761e-07
6.02759e-07
6.02752e-07
6.03588e-07
6.03918e-07
6.04399e-07
6.04489e-07
6.03804e-07
6.02752e-07
6.02755e-07
6.02757e-07
6.02758e-07
6.02757e-07
6.02755e-07
6.02752e-07
6.03597e-07
6.03912e-07
6.04507e-07
6.03876e-07
6.02765e-07
6.02759e-07
6.02757e-07
6.02757e-07
6.02758e-07
6.02757e-07
6.02757e-07
6.02759e-07
6.02765e-07
6.03737e-07
6.04379e-07
6.03843e-07
6.02767e-07
6.02761e-07
6.02758e-07
6.02758e-07
6.02757e-07
6.02758e-07
6.02758e-07
6.02761e-07
6.02767e-07
6.03674e-07
6.04341e-07
6.03858e-07
6.02765e-07
6.02759e-07
6.02757e-07
6.02757e-07
6.02758e-07
6.02757e-07
6.02757e-07
6.02759e-07
6.02765e-07
6.03689e-07
6.04344e-07
6.04339e-07
6.03624e-07
6.02752e-07
6.02755e-07
6.02757e-07
6.02758e-07
6.02757e-07
6.02755e-07
6.02752e-07
6.03422e-07
6.03824e-07
6.0446e-07
6.04472e-07
6.03921e-07
6.03588e-07
6.02752e-07
6.02759e-07
6.02761e-07
6.02759e-07
6.02752e-07
6.03406e-07
6.03785e-07
6.03967e-07
6.04407e-07
6.03918e-07
6.03597e-07
6.02765e-07
6.02767e-07
6.02765e-07
6.03422e-07
6.03785e-07
6.03973e-07
6.04509e-07
6.04399e-07
6.03913e-07
6.03737e-07
6.03674e-07
6.03689e-07
6.03824e-07
6.03967e-07
6.04509e-07
6.04507e-07
6.04379e-07
6.04341e-07
6.04344e-07
6.0446e-07
5.99052e-07
5.98438e-07
5.98405e-07
5.9842e-07
5.98901e-07
5.99034e-07
5.99128e-07
5.98536e-07
5.98366e-07
5.97327e-07
5.97329e-07
5.97327e-07
5.98186e-07
5.98483e-07
5.98969e-07
5.98536e-07
5.98348e-07
5.97314e-07
5.97321e-07
5.97323e-07
5.97321e-07
5.97314e-07
5.9815e-07
5.9848e-07
5.98961e-07
5.99052e-07
5.98366e-07
5.97314e-07
5.97317e-07
5.97319e-07
5.9732e-07
5.97319e-07
5.97317e-07
5.97314e-07
5.98159e-07
5.98475e-07
5.9907e-07
5.98438e-07
5.97327e-07
5.97321e-07
5.97319e-07
5.9732e-07
5.9732e-07
5.9732e-07
5.97319e-07
5.97321e-07
5.97327e-07
5.98299e-07
5.98941e-07
5.98405e-07
5.97329e-07
5.97323e-07
5.9732e-07
5.9732e-07
5.9732e-07
5.9732e-07
5.9732e-07
5.97323e-07
5.97329e-07
5.98236e-07
5.98903e-07
5.9842e-07
5.97327e-07
5.97321e-07
5.97319e-07
5.9732e-07
5.9732e-07
5.9732e-07
5.97319e-07
5.97321e-07
5.97327e-07
5.98252e-07
5.98906e-07
5.98901e-07
5.98186e-07
5.97314e-07
5.97317e-07
5.97319e-07
5.9732e-07
5.97319e-07
5.97317e-07
5.97314e-07
5.97984e-07
5.98386e-07
5.99022e-07
5.99034e-07
5.98483e-07
5.9815e-07
5.97314e-07
5.97321e-07
5.97323e-07
5.97321e-07
5.97314e-07
5.97969e-07
5.98347e-07
5.98529e-07
5.98969e-07
5.9848e-07
5.98159e-07
5.97327e-07
5.97329e-07
5.97327e-07
5.97984e-07
5.98347e-07
5.98535e-07
5.99071e-07
5.98961e-07
5.98475e-07
5.98299e-07
5.98236e-07
5.98252e-07
5.98386e-07
5.9853e-07
5.99071e-07
5.99069e-07
5.98941e-07
5.98903e-07
5.98906e-07
5.99022e-07
5.93614e-07
5.93e-07
5.92968e-07
5.92982e-07
5.93463e-07
5.93596e-07
5.93691e-07
5.93098e-07
5.92928e-07
5.91889e-07
5.91891e-07
5.91889e-07
5.92748e-07
5.93045e-07
5.93531e-07
5.93098e-07
5.9291e-07
5.91877e-07
5.91883e-07
5.91885e-07
5.91883e-07
5.91877e-07
5.92713e-07
5.93042e-07
5.93523e-07
5.93614e-07
5.92928e-07
5.91877e-07
5.91879e-07
5.91882e-07
5.91883e-07
5.91882e-07
5.91879e-07
5.91877e-07
5.92722e-07
5.93037e-07
5.93632e-07
5.93e-07
5.91889e-07
5.91883e-07
5.91882e-07
5.91882e-07
5.91882e-07
5.91882e-07
5.91882e-07
5.91883e-07
5.91889e-07
5.92861e-07
5.93503e-07
5.92968e-07
5.91891e-07
5.91885e-07
5.91883e-07
5.91882e-07
5.91882e-07
5.91882e-07
5.91883e-07
5.91885e-07
5.91891e-07
5.92799e-07
5.93466e-07
5.92982e-07
5.91889e-07
5.91883e-07
5.91882e-07
5.91882e-07
5.91882e-07
5.91882e-07
5.91882e-07
5.91883e-07
5.91889e-07
5.92814e-07
5.93468e-07
5.93463e-07
5.92748e-07
5.91877e-07
5.91879e-07
5.91882e-07
5.91883e-07
5.91882e-07
5.91879e-07
5.91877e-07
5.92547e-07
5.92948e-07
5.93584e-07
5.93596e-07
5.93045e-07
5.92713e-07
5.91877e-07
5.91883e-07
5.91885e-07
5.91883e-07
5.91877e-07
5.92531e-07
5.9291e-07
5.93092e-07
5.93531e-07
5.93042e-07
5.92722e-07
5.91889e-07
5.91891e-07
5.91889e-07
5.92547e-07
5.9291e-07
5.93097e-07
5.93634e-07
5.93523e-07
5.93037e-07
5.92861e-07
5.92799e-07
5.92814e-07
5.92948e-07
5.93092e-07
5.93634e-07
5.93632e-07
5.93503e-07
5.93466e-07
5.93468e-07
5.93584e-07
5.88176e-07
5.87563e-07
5.8753e-07
5.87545e-07
5.88026e-07
5.88159e-07
5.88253e-07
5.87661e-07
5.87491e-07
5.86452e-07
5.86454e-07
5.86452e-07
5.87311e-07
5.87607e-07
5.88094e-07
5.87661e-07
5.87473e-07
5.86439e-07
5.86446e-07
5.86448e-07
5.86446e-07
5.86439e-07
5.87275e-07
5.87605e-07
5.88086e-07
5.88176e-07
5.87491e-07
5.86439e-07
5.86442e-07
5.86444e-07
5.86445e-07
5.86444e-07
5.86442e-07
5.86439e-07
5.87284e-07
5.87599e-07
5.88194e-07
5.87563e-07
5.86452e-07
5.86446e-07
5.86444e-07
5.86445e-07
5.86445e-07
5.86445e-07
5.86444e-07
5.86446e-07
5.86452e-07
5.87424e-07
5.88066e-07
5.8753e-07
5.86454e-07
5.86448e-07
5.86445e-07
5.86445e-07
5.86445e-07
5.86445e-07
5.86445e-07
5.86448e-07
5.86454e-07
5.87361e-07
5.88028e-07
5.87544e-07
5.86452e-07
5.86446e-07
5.86444e-07
5.86445e-07
5.86445e-07
5.86445e-07
5.86444e-07
5.86446e-07
5.86452e-07
5.87376e-07
5.88031e-07
5.88026e-07
5.87311e-07
5.86439e-07
5.86442e-07
5.86444e-07
5.86445e-07
5.86444e-07
5.86442e-07
5.86439e-07
5.87109e-07
5.87511e-07
5.88147e-07
5.88159e-07
5.87607e-07
5.87275e-07
5.86439e-07
5.86446e-07
5.86448e-07
5.86446e-07
5.86439e-07
5.87093e-07
5.87472e-07
5.87654e-07
5.88094e-07
5.87605e-07
5.87284e-07
5.86452e-07
5.86454e-07
5.86452e-07
5.87109e-07
5.87472e-07
5.8766e-07
5.88196e-07
5.88086e-07
5.87599e-07
5.87424e-07
5.87361e-07
5.87376e-07
5.87511e-07
5.87654e-07
5.88196e-07
5.88194e-07
5.88066e-07
5.88028e-07
5.88031e-07
5.88146e-07
5.82739e-07
5.82126e-07
5.82093e-07
5.82107e-07
5.82588e-07
5.82721e-07
5.82816e-07
5.82223e-07
5.82053e-07
5.81014e-07
5.81017e-07
5.81014e-07
5.81874e-07
5.8217e-07
5.82657e-07
5.82223e-07
5.82035e-07
5.81002e-07
5.81008e-07
5.8101e-07
5.81008e-07
5.81002e-07
5.81838e-07
5.82167e-07
5.82648e-07
5.82739e-07
5.82053e-07
5.81002e-07
5.81004e-07
5.81007e-07
5.81008e-07
5.81007e-07
5.81004e-07
5.81002e-07
5.81847e-07
5.82162e-07
5.82757e-07
5.82126e-07
5.81014e-07
5.81008e-07
5.81007e-07
5.81007e-07
5.81007e-07
5.81007e-07
5.81007e-07
5.81008e-07
5.81014e-07
5.81986e-07
5.82628e-07
5.82093e-07
5.81017e-07
5.8101e-07
5.81008e-07
5.81007e-07
5.81007e-07
5.81007e-07
5.81008e-07
5.8101e-07
5.81017e-07
5.81924e-07
5.82591e-07
5.82107e-07
5.81014e-07
5.81008e-07
5.81007e-07
5.81007e-07
5.81007e-07
5.81007e-07
5.81007e-07
5.81008e-07
5.81014e-07
5.81939e-07
5.82594e-07
5.82588e-07
5.81874e-07
5.81002e-07
5.81004e-07
5.81007e-07
5.81008e-07
5.81007e-07
5.81004e-07
5.81002e-07
5.81672e-07
5.82074e-07
5.82709e-07
5.82721e-07
5.8217e-07
5.81838e-07
5.81002e-07
5.81008e-07
5.8101e-07
5.81008e-07
5.81002e-07
5.81656e-07
5.82035e-07
5.82217e-07
5.82657e-07
5.82167e-07
5.81847e-07
5.81014e-07
5.81017e-07
5.81014e-07
5.81672e-07
5.82035e-07
5.82223e-07
5.82759e-07
5.82648e-07
5.82162e-07
5.81986e-07
5.81924e-07
5.81939e-07
5.82074e-07
5.82217e-07
5.82759e-07
5.82757e-07
5.82628e-07
5.82591e-07
5.82594e-07
5.82709e-07
5.77302e-07
5.76688e-07
5.76656e-07
5.7667e-07
5.77151e-07
5.77284e-07
5.77378e-07
5.76786e-07
5.76616e-07
5.75577e-07
5.75579e-07
5.75577e-07
5.76436e-07
5.76733e-07
5.77219e-07
5.76786e-07
5.76598e-07
5.75564e-07
5.75571e-07
5.75573e-07
5.75571e-07
5.75564e-07
5.764e-07
5.7673e-07
5.77211e-07
5.77302e-07
5.76616e-07
5.75564e-07
5.75567e-07
5.7557e-07
5.75571e-07
5.7557e-07
5.75567e-07
5.75564e-07
5.7641e-07
5.76725e-07
5.7732e-07
5.76688e-07
5.75577e-07
5.75571e-07
5.7557e-07
5.7557e-07
5.7557e-07
5.7557e-07
5.7557e-07
5.75571e-07
5.75577e-07
5.76549e-07
5.77191e-07
5.76656e-07
5.75579e-07
5.75573e-07
5.75571e-07
5.7557e-07
5.7557e-07
5.7557e-07
5.75571e-07
5.75573e-07
5.75579e-07
5.76486e-07
5.77154e-07
5.7667e-07
5.75577e-07
5.75571e-07
5.7557e-07
5.7557e-07
5.7557e-07
5.7557e-07
5.7557e-07
5.75571e-07
5.75577e-07
5.76502e-07
5.77156e-07
5.77151e-07
5.76436e-07
5.75564e-07
5.75567e-07
5.7557e-07
5.75571e-07
5.7557e-07
5.75567e-07
5.75564e-07
5.76234e-07
5.76636e-07
5.77272e-07
5.77284e-07
5.76733e-07
5.764e-07
5.75564e-07
5.75571e-07
5.75573e-07
5.75571e-07
5.75564e-07
5.76219e-07
5.76597e-07
5.7678e-07
5.77219e-07
5.7673e-07
5.7641e-07
5.75577e-07
5.75579e-07
5.75577e-07
5.76234e-07
5.76598e-07
5.76785e-07
5.77321e-07
5.77211e-07
5.76725e-07
5.76549e-07
5.76486e-07
5.76502e-07
5.76636e-07
5.7678e-07
5.77321e-07
5.7732e-07
5.77191e-07
5.77154e-07
5.77156e-07
5.77272e-07
5.71864e-07
5.71251e-07
5.71218e-07
5.71232e-07
5.71714e-07
5.71847e-07
5.71941e-07
5.71349e-07
5.71179e-07
5.7014e-07
5.70142e-07
5.7014e-07
5.70999e-07
5.71295e-07
5.71782e-07
5.71349e-07
5.71161e-07
5.70127e-07
5.70134e-07
5.70136e-07
5.70134e-07
5.70127e-07
5.70963e-07
5.71293e-07
5.71774e-07
5.71864e-07
5.71179e-07
5.70127e-07
5.7013e-07
5.70132e-07
5.70133e-07
5.70132e-07
5.7013e-07
5.70127e-07
5.70972e-07
5.71287e-07
5.71882e-07
5.71251e-07
5.7014e-07
5.70134e-07
5.70132e-07
5.70132e-07
5.70133e-07
5.70132e-07
5.70132e-07
5.70134e-07
5.7014e-07
5.71112e-07
5.71754e-07
5.71218e-07
5.70142e-07
5.70136e-07
5.70133e-07
5.70133e-07
5.70133e-07
5.70133e-07
5.70133e-07
5.70136e-07
5.70142e-07
5.71049e-07
5.71716e-07
5.71232e-07
5.7014e-07
5.70134e-07
5.70132e-07
5.70132e-07
5.70133e-07
5.70132e-07
5.70132e-07
5.70134e-07
5.7014e-07
5.71064e-07
5.71719e-07
5.71714e-07
5.70999e-07
5.70127e-07
5.7013e-07
5.70132e-07
5.70133e-07
5.70132e-07
5.7013e-07
5.70127e-07
5.70797e-07
5.71199e-07
5.71834e-07
5.71847e-07
5.71295e-07
5.70963e-07
5.70127e-07
5.70134e-07
5.70136e-07
5.70134e-07
5.70127e-07
5.70781e-07
5.7116e-07
5.71342e-07
5.71782e-07
5.71293e-07
5.70972e-07
5.7014e-07
5.70142e-07
5.7014e-07
5.70797e-07
5.7116e-07
5.71348e-07
5.71884e-07
5.71774e-07
5.71287e-07
5.71112e-07
5.71049e-07
5.71064e-07
5.71199e-07
5.71342e-07
5.71884e-07
5.71882e-07
5.71754e-07
5.71716e-07
5.71719e-07
5.71834e-07
5.66427e-07
5.65814e-07
5.65781e-07
5.65795e-07
5.66276e-07
5.66409e-07
5.66504e-07
5.65911e-07
5.65741e-07
5.64702e-07
5.64704e-07
5.64702e-07
5.65561e-07
5.65858e-07
5.66344e-07
5.65911e-07
5.65723e-07
5.6469e-07
5.64696e-07
5.64698e-07
5.64696e-07
5.6469e-07
5.65526e-07
5.65855e-07
5.66336e-07
5.66427e-07
5.65741e-07
5.6469e-07
5.64692e-07
5.64695e-07
5.64696e-07
5.64695e-07
5.64692e-07
5.6469e-07
5.65535e-07
5.6585e-07
5.66445e-07
5.65814e-07
5.64702e-07
5.64696e-07
5.64695e-07
5.64695e-07
5.64695e-07
5.64695e-07
5.64695e-07
5.64696e-07
5.64702e-07
5.65674e-07
5.66316e-07
5.65781e-07
5.64704e-07
5.64698e-07
5.64696e-07
5.64695e-07
5.64695e-07
5.64695e-07
5.64696e-07
5.64698e-07
5.64704e-07
5.65612e-07
5.66279e-07
5.65795e-07
5.64702e-07
5.64696e-07
5.64695e-07
5.64695e-07
5.64695e-07
5.64695e-07
5.64695e-07
5.64696e-07
5.64702e-07
5.65627e-07
5.66282e-07
5.66276e-07
5.65561e-07
5.6469e-07
5.64692e-07
5.64695e-07
5.64696e-07
5.64695e-07
5.64692e-07
5.6469e-07
5.6536e-07
5.65761e-07
5.66397e-07
5.66409e-07
5.65858e-07
5.65526e-07
5.6469e-07
5.64696e-07
5.64698e-07
5.64696e-07
5.6469e-07
5.65344e-07
5.65723e-07
5.65905e-07
5.66344e-07
5.65855e-07
5.65535e-07
5.64702e-07
5.64704e-07
5.64702e-07
5.6536e-07
5.65723e-07
5.6591e-07
5.66447e-07
5.66336e-07
5.6585e-07
5.65674e-07
5.65612e-07
5.65627e-07
5.65761e-07
5.65905e-07
5.66447e-07
5.66445e-07
5.66316e-07
5.66279e-07
5.66281e-07
5.66397e-07
5.60989e-07
5.60376e-07
5.60343e-07
5.60358e-07
5.60839e-07
5.60972e-07
5.61066e-07
5.60474e-07
5.60304e-07
5.59265e-07
5.59267e-07
5.59265e-07
5.60124e-07
5.6042e-07
5.60907e-07
5.60474e-07
5.60286e-07
5.59252e-07
5.59259e-07
5.59261e-07
5.59259e-07
5.59252e-07
5.60088e-07
5.60418e-07
5.60899e-07
5.60989e-07
5.60304e-07
5.59252e-07
5.59255e-07
5.59257e-07
5.59258e-07
5.59257e-07
5.59255e-07
5.59252e-07
5.60097e-07
5.60412e-07
5.61007e-07
5.60376e-07
5.59265e-07
5.59259e-07
5.59257e-07
5.59258e-07
5.59258e-07
5.59258e-07
5.59257e-07
5.59259e-07
5.59265e-07
5.60237e-07
5.60879e-07
5.60343e-07
5.59267e-07
5.59261e-07
5.59258e-07
5.59258e-07
5.59258e-07
5.59258e-07
5.59258e-07
5.59261e-07
5.59267e-07
5.60174e-07
5.60841e-07
5.60357e-07
5.59265e-07
5.59259e-07
5.59257e-07
5.59258e-07
5.59258e-07
5.59258e-07
5.59257e-07
5.59259e-07
5.59265e-07
5.60189e-07
5.60844e-07
5.60839e-07
5.60124e-07
5.59252e-07
5.59255e-07
5.59257e-07
5.59258e-07
5.59257e-07
5.59255e-07
5.59252e-07
5.59922e-07
5.60324e-07
5.60959e-07
5.60972e-07
5.60421e-07
5.60088e-07
5.59252e-07
5.59259e-07
5.59261e-07
5.59259e-07
5.59252e-07
5.59906e-07
5.60285e-07
5.60467e-07
5.60907e-07
5.60418e-07
5.60097e-07
5.59265e-07
5.59267e-07
5.59265e-07
5.59922e-07
5.60285e-07
5.60473e-07
5.61009e-07
5.60899e-07
5.60412e-07
5.60237e-07
5.60174e-07
5.60189e-07
5.60324e-07
5.60467e-07
5.61009e-07
5.61007e-07
5.60879e-07
5.60841e-07
5.60844e-07
5.60959e-07
5.55552e-07
5.54939e-07
5.54906e-07
5.5492e-07
5.55401e-07
5.55534e-07
5.55629e-07
5.55036e-07
5.54866e-07
5.53827e-07
5.53829e-07
5.53827e-07
5.54686e-07
5.54983e-07
5.55469e-07
5.55036e-07
5.54848e-07
5.53815e-07
5.53821e-07
5.53823e-07
5.53821e-07
5.53815e-07
5.54651e-07
5.5498e-07
5.55461e-07
5.55552e-07
5.54866e-07
5.53815e-07
5.53817e-07
5.5382e-07
5.53821e-07
5.5382e-07
5.53817e-07
5.53815e-07
5.5466e-07
5.54975e-07
5.5557e-07
5.54939e-07
5.53827e-07
5.53821e-07
5.5382e-07
5.5382e-07
5.5382e-07
5.5382e-07
5.5382e-07
5.53821e-07
5.53827e-07
5.54799e-07
5.55441e-07
5.54906e-07
5.53829e-07
5.53823e-07
5.53821e-07
5.5382e-07
5.5382e-07
5.5382e-07
5.53821e-07
5.53823e-07
5.53829e-07
5.54737e-07
5.55404e-07
5.5492e-07
5.53827e-07
5.53821e-07
5.5382e-07
5.5382e-07
5.5382e-07
5.5382e-07
5.5382e-07
5.53821e-07
5.53827e-07
5.54752e-07
5.55406e-07
5.55401e-07
5.54686e-07
5.53815e-07
5.53817e-07
5.5382e-07
5.53821e-07
5.5382e-07
5.53817e-07
5.53815e-07
5.54485e-07
5.54886e-07
5.55522e-07
5.55534e-07
5.54983e-07
5.54651e-07
5.53815e-07
5.53821e-07
5.53823e-07
5.53821e-07
5.53815e-07
5.54469e-07
5.54848e-07
5.5503e-07
5.5547e-07
5.5498e-07
5.5466e-07
5.53827e-07
5.53829e-07
5.53827e-07
5.54485e-07
5.54848e-07
5.55035e-07
5.55572e-07
5.55461e-07
5.54975e-07
5.54799e-07
5.54737e-07
5.54752e-07
5.54886e-07
5.5503e-07
5.55572e-07
5.5557e-07
5.55441e-07
5.55404e-07
5.55406e-07
5.55522e-07
5.50114e-07
5.49501e-07
5.49468e-07
5.49482e-07
5.49964e-07
5.50097e-07
5.50191e-07
5.49599e-07
5.49429e-07
5.4839e-07
5.48392e-07
5.4839e-07
5.49249e-07
5.49545e-07
5.50032e-07
5.49599e-07
5.49411e-07
5.48377e-07
5.48384e-07
5.48386e-07
5.48384e-07
5.48377e-07
5.49213e-07
5.49543e-07
5.50024e-07
5.50114e-07
5.49429e-07
5.48377e-07
5.4838e-07
5.48382e-07
5.48383e-07
5.48382e-07
5.4838e-07
5.48377e-07
5.49222e-07
5.49537e-07
5.50132e-07
5.49501e-07
5.4839e-07
5.48384e-07
5.48382e-07
5.48383e-07
5.48383e-07
5.48383e-07
5.48382e-07
5.48384e-07
5.4839e-07
5.49362e-07
5.50004e-07
5.49468e-07
5.48392e-07
5.48386e-07
5.48383e-07
5.48383e-07
5.48383e-07
5.48383e-07
5.48383e-07
5.48386e-07
5.48392e-07
5.49299e-07
5.49966e-07
5.49482e-07
5.4839e-07
5.48384e-07
5.48382e-07
5.48383e-07
5.48383e-07
5.48383e-07
5.48382e-07
5.48384e-07
5.4839e-07
5.49314e-07
5.49969e-07
5.49964e-07
5.49249e-07
5.48377e-07
5.4838e-07
5.48382e-07
5.48383e-07
5.48382e-07
5.4838e-07
5.48377e-07
5.49047e-07
5.49449e-07
5.50084e-07
5.50097e-07
5.49545e-07
5.49213e-07
5.48377e-07
5.48384e-07
5.48386e-07
5.48384e-07
5.48377e-07
5.49031e-07
5.4941e-07
5.49592e-07
5.50032e-07
5.49543e-07
5.49222e-07
5.4839e-07
5.48392e-07
5.4839e-07
5.49047e-07
5.4941e-07
5.49598e-07
5.50134e-07
5.50024e-07
5.49537e-07
5.49362e-07
5.49299e-07
5.49314e-07
5.49449e-07
5.49592e-07
5.50134e-07
5.50132e-07
5.50004e-07
5.49966e-07
5.49969e-07
5.50084e-07
5.44677e-07
5.44063e-07
5.44031e-07
5.44045e-07
5.44526e-07
5.44659e-07
5.44754e-07
5.44161e-07
5.43991e-07
5.42952e-07
5.42954e-07
5.42952e-07
5.43811e-07
5.44108e-07
5.44594e-07
5.44161e-07
5.43973e-07
5.4294e-07
5.42946e-07
5.42948e-07
5.42946e-07
5.4294e-07
5.43776e-07
5.44105e-07
5.44586e-07
5.44677e-07
5.43991e-07
5.4294e-07
5.42942e-07
5.42945e-07
5.42946e-07
5.42945e-07
5.42942e-07
5.4294e-07
5.43785e-07
5.441e-07
5.44695e-07
5.44063e-07
5.42952e-07
5.42946e-07
5.42945e-07
5.42945e-07
5.42945e-07
5.42945e-07
5.42945e-07
5.42946e-07
5.42952e-07
5.43924e-07
5.44566e-07
5.44031e-07
5.42954e-07
5.42948e-07
5.42946e-07
5.42945e-07
5.42945e-07
5.42945e-07
5.42946e-07
5.42948e-07
5.42954e-07
5.43862e-07
5.44529e-07
5.44045e-07
5.42952e-07
5.42946e-07
5.42945e-07
5.42945e-07
5.42945e-07
5.42945e-07
5.42945e-07
5.42946e-07
5.42952e-07
5.43877e-07
5.44532e-07
5.44526e-07
5.43811e-07
5.4294e-07
5.42942e-07
5.42945e-07
5.42946e-07
5.42945e-07
5.42942e-07
5.4294e-07
5.4361e-07
5.44011e-07
5.44647e-07
5.44659e-07
5.44108e-07
5.43776e-07
5.4294e-07
5.42946e-07
5.42948e-07
5.42946e-07
5.4294e-07
5.43594e-07
5.43973e-07
5.44155e-07
5.44594e-07
5.44105e-07
5.43785e-07
5.42952e-07
5.42954e-07
5.42952e-07
5.4361e-07
5.43973e-07
5.4416e-07
5.44697e-07
5.44586e-07
5.441e-07
5.43924e-07
5.43862e-07
5.43877e-07
5.44011e-07
5.44155e-07
5.44696e-07
5.44695e-07
5.44566e-07
5.44529e-07
5.44531e-07
5.44647e-07
5.39239e-07
5.38626e-07
5.38593e-07
5.38607e-07
5.39089e-07
5.39222e-07
5.39316e-07
5.38724e-07
5.38554e-07
5.37515e-07
5.37517e-07
5.37515e-07
5.38374e-07
5.3867e-07
5.39157e-07
5.38724e-07
5.38536e-07
5.37502e-07
5.37509e-07
5.37511e-07
5.37509e-07
5.37502e-07
5.38338e-07
5.38668e-07
5.39149e-07
5.39239e-07
5.38554e-07
5.37502e-07
5.37505e-07
5.37507e-07
5.37508e-07
5.37507e-07
5.37505e-07
5.37502e-07
5.38347e-07
5.38662e-07
5.39257e-07
5.38626e-07
5.37515e-07
5.37509e-07
5.37507e-07
5.37507e-07
5.37508e-07
5.37507e-07
5.37507e-07
5.37509e-07
5.37515e-07
5.38487e-07
5.39129e-07
5.38593e-07
5.37517e-07
5.37511e-07
5.37508e-07
5.37508e-07
5.37508e-07
5.37508e-07
5.37508e-07
5.37511e-07
5.37517e-07
5.38424e-07
5.39091e-07
5.38607e-07
5.37515e-07
5.37509e-07
5.37507e-07
5.37507e-07
5.37508e-07
5.37507e-07
5.37507e-07