/*--------------------------------*- C++ -*----------------------------------*\
| =========                 |                                                 |
| \\      /  F ield         | OpenFOAM: The Open Source CFD Toolbox           |
|  \\    /   O peration     | Version:  v2012                                 |
|   \\  /    A nd           | Website:  www.openfoam.com                      |
|    \\/     M anipulation  |                                                 |
\*---------------------------------------------------------------------------*/
FoamFile
{
    version     2.0;
    format      ascii;
    class       volScalarField;
    location    "40";
    object      p;
}
// * * * * * * * * * * * * * * * * * * * * * * * * * * * * * * * * * * * * * //

dimensions      [0 2 -2 0 0 0 0];


internalField   nonuniform List<scalar> 
292667
(
1.29443e-06
1.28456e-06
1.28374e-06
1.28382e-06
1.28496e-06
1.29537e-06
1.28477e-06
1.28188e-06
1.28019e-06
1.2795e-06
1.27959e-06
1.28049e-06
1.28244e-06
1.28562e-06
1.28477e-06
1.28102e-06
1.27871e-06
1.27744e-06
1.2769e-06
1.27697e-06
1.27767e-06
1.27915e-06
1.28177e-06
1.28587e-06
1.29443e-06
1.28188e-06
1.27871e-06
1.27684e-06
1.27579e-06
1.27534e-06
1.2754e-06
1.27598e-06
1.2772e-06
1.27933e-06
1.28289e-06
1.29423e-06
1.28456e-06
1.28019e-06
1.27744e-06
1.27579e-06
1.27486e-06
1.27445e-06
1.27451e-06
1.27503e-06
1.27612e-06
1.27799e-06
1.28112e-06
1.2885e-06
1.28374e-06
1.2795e-06
1.2769e-06
1.27534e-06
1.27445e-06
1.27406e-06
1.27412e-06
1.27462e-06
1.27566e-06
1.27743e-06
1.2804e-06
1.2867e-06
1.28382e-06
1.27959e-06
1.27697e-06
1.2754e-06
1.27451e-06
1.27412e-06
1.27417e-06
1.27468e-06
1.27572e-06
1.27751e-06
1.2805e-06
1.28704e-06
1.28496e-06
1.28049e-06
1.27767e-06
1.27598e-06
1.27503e-06
1.27462e-06
1.27468e-06
1.27522e-06
1.27633e-06
1.27824e-06
1.28147e-06
1.28884e-06
1.29537e-06
1.28244e-06
1.27915e-06
1.2772e-06
1.27612e-06
1.27566e-06
1.27572e-06
1.27633e-06
1.27759e-06
1.27982e-06
1.28352e-06
1.29419e-06
1.28562e-06
1.28177e-06
1.27933e-06
1.27799e-06
1.27743e-06
1.27751e-06
1.27824e-06
1.27982e-06
1.2826e-06
1.28942e-06
1.28587e-06
1.28289e-06
1.28112e-06
1.2804e-06
1.2805e-06
1.28147e-06
1.28351e-06
1.28942e-06
1.29423e-06
1.2885e-06
1.2867e-06
1.28704e-06
1.28884e-06
1.29419e-06
1.26612e-06
1.26511e-06
1.26508e-06
1.26512e-06
1.26605e-06
1.26597e-06
1.26619e-06
1.26538e-06
1.26497e-06
1.2634e-06
1.26338e-06
1.2634e-06
1.26512e-06
1.26539e-06
1.26617e-06
1.26539e-06
1.26498e-06
1.26345e-06
1.26338e-06
1.26343e-06
1.26338e-06
1.26345e-06
1.26509e-06
1.26537e-06
1.26614e-06
1.26612e-06
1.26497e-06
1.26345e-06
1.26338e-06
1.26342e-06
1.26341e-06
1.26342e-06
1.26338e-06
1.26345e-06
1.26508e-06
1.26539e-06
1.26623e-06
1.26511e-06
1.2634e-06
1.26338e-06
1.26342e-06
1.26339e-06
1.26338e-06
1.26339e-06
1.26342e-06
1.26338e-06
1.2634e-06
1.2655e-06
1.26633e-06
1.26508e-06
1.26338e-06
1.26343e-06
1.26341e-06
1.26339e-06
1.26338e-06
1.26339e-06
1.26341e-06
1.26343e-06
1.26338e-06
1.2655e-06
1.26619e-06
1.26512e-06
1.2634e-06
1.26338e-06
1.26342e-06
1.26339e-06
1.26339e-06
1.26338e-06
1.26342e-06
1.26338e-06
1.2634e-06
1.26551e-06
1.26623e-06
1.26605e-06
1.26512e-06
1.26345e-06
1.26338e-06
1.26342e-06
1.26341e-06
1.26342e-06
1.26338e-06
1.26345e-06
1.26523e-06
1.26542e-06
1.2663e-06
1.26597e-06
1.26539e-06
1.26509e-06
1.26345e-06
1.26338e-06
1.26343e-06
1.26338e-06
1.26345e-06
1.26519e-06
1.26539e-06
1.26543e-06
1.26617e-06
1.26537e-06
1.26508e-06
1.2634e-06
1.26338e-06
1.2634e-06
1.26523e-06
1.26539e-06
1.2655e-06
1.26629e-06
1.26614e-06
1.26539e-06
1.2655e-06
1.2655e-06
1.26551e-06
1.26542e-06
1.26543e-06
1.26629e-06
1.26623e-06
1.26633e-06
1.26619e-06
1.26623e-06
1.2663e-06
1.25533e-06
1.25435e-06
1.25428e-06
1.25433e-06
1.25529e-06
1.25536e-06
1.25538e-06
1.2545e-06
1.25403e-06
1.25248e-06
1.25248e-06
1.25248e-06
1.25418e-06
1.25451e-06
1.25533e-06
1.2545e-06
1.25402e-06
1.25254e-06
1.25253e-06
1.25257e-06
1.25253e-06
1.25254e-06
1.25418e-06
1.25451e-06
1.25533e-06
1.25533e-06
1.25403e-06
1.25254e-06
1.25255e-06
1.25261e-06
1.25261e-06
1.25261e-06
1.25255e-06
1.25254e-06
1.25418e-06
1.25456e-06
1.25539e-06
1.25435e-06
1.25248e-06
1.25253e-06
1.25261e-06
1.25262e-06
1.25264e-06
1.25262e-06
1.25261e-06
1.25253e-06
1.25248e-06
1.25459e-06
1.2555e-06
1.25428e-06
1.25248e-06
1.25257e-06
1.25261e-06
1.25264e-06
1.25265e-06
1.25264e-06
1.25261e-06
1.25257e-06
1.25248e-06
1.25458e-06
1.2555e-06
1.25433e-06
1.25248e-06
1.25253e-06
1.25261e-06
1.25262e-06
1.25264e-06
1.25262e-06
1.25261e-06
1.25253e-06
1.25248e-06
1.25459e-06
1.2555e-06
1.25529e-06
1.25418e-06
1.25254e-06
1.25255e-06
1.25261e-06
1.25261e-06
1.25261e-06
1.25255e-06
1.25254e-06
1.25435e-06
1.25459e-06
1.25551e-06
1.25536e-06
1.25451e-06
1.25418e-06
1.25254e-06
1.25253e-06
1.25257e-06
1.25253e-06
1.25254e-06
1.25433e-06
1.25452e-06
1.25464e-06
1.25533e-06
1.25451e-06
1.25418e-06
1.25248e-06
1.25248e-06
1.25248e-06
1.25435e-06
1.25452e-06
1.25462e-06
1.25549e-06
1.25533e-06
1.25456e-06
1.25459e-06
1.25458e-06
1.25459e-06
1.25459e-06
1.25464e-06
1.25549e-06
1.25539e-06
1.2555e-06
1.2555e-06
1.2555e-06
1.25551e-06
1.24461e-06
1.24361e-06
1.24354e-06
1.24358e-06
1.24456e-06
1.24464e-06
1.24465e-06
1.24375e-06
1.24325e-06
1.24169e-06
1.24169e-06
1.24169e-06
1.2434e-06
1.24375e-06
1.2446e-06
1.24375e-06
1.24323e-06
1.24172e-06
1.24173e-06
1.24176e-06
1.24173e-06
1.24172e-06
1.24338e-06
1.24375e-06
1.2446e-06
1.24461e-06
1.24325e-06
1.24172e-06
1.24175e-06
1.24179e-06
1.24179e-06
1.24179e-06
1.24175e-06
1.24172e-06
1.2434e-06
1.24382e-06
1.24467e-06
1.24361e-06
1.24169e-06
1.24173e-06
1.24179e-06
1.2418e-06
1.24182e-06
1.2418e-06
1.24179e-06
1.24173e-06
1.24169e-06
1.24384e-06
1.24477e-06
1.24354e-06
1.24169e-06
1.24176e-06
1.24179e-06
1.24182e-06
1.24183e-06
1.24182e-06
1.24179e-06
1.24176e-06
1.24169e-06
1.24382e-06
1.24477e-06
1.24358e-06
1.24169e-06
1.24173e-06
1.24179e-06
1.2418e-06
1.24182e-06
1.2418e-06
1.24179e-06
1.24173e-06
1.24169e-06
1.24383e-06
1.24477e-06
1.24456e-06
1.2434e-06
1.24172e-06
1.24175e-06
1.24179e-06
1.24179e-06
1.24179e-06
1.24175e-06
1.24172e-06
1.24358e-06
1.24385e-06
1.24478e-06
1.24464e-06
1.24375e-06
1.24338e-06
1.24172e-06
1.24173e-06
1.24176e-06
1.24173e-06
1.24172e-06
1.24356e-06
1.24377e-06
1.24392e-06
1.2446e-06
1.24375e-06
1.2434e-06
1.24169e-06
1.24169e-06
1.24169e-06
1.24358e-06
1.24377e-06
1.24389e-06
1.24477e-06
1.2446e-06
1.24382e-06
1.24384e-06
1.24382e-06
1.24383e-06
1.24385e-06
1.24392e-06
1.24477e-06
1.24467e-06
1.24477e-06
1.24477e-06
1.24477e-06
1.24478e-06
1.23388e-06
1.23287e-06
1.2328e-06
1.23285e-06
1.23383e-06
1.23391e-06
1.23392e-06
1.23302e-06
1.23251e-06
1.23094e-06
1.23094e-06
1.23094e-06
1.23265e-06
1.23301e-06
1.23387e-06
1.23302e-06
1.23248e-06
1.23095e-06
1.23096e-06
1.23097e-06
1.23096e-06
1.23095e-06
1.23263e-06
1.23301e-06
1.23387e-06
1.23388e-06
1.23251e-06
1.23095e-06
1.23097e-06
1.23099e-06
1.231e-06
1.23099e-06
1.23097e-06
1.23095e-06
1.23265e-06
1.23309e-06
1.23393e-06
1.23287e-06
1.23094e-06
1.23096e-06
1.23099e-06
1.23101e-06
1.23102e-06
1.23101e-06
1.23099e-06
1.23096e-06
1.23094e-06
1.2331e-06
1.23404e-06
1.2328e-06
1.23094e-06
1.23097e-06
1.231e-06
1.23102e-06
1.23102e-06
1.23102e-06
1.231e-06
1.23097e-06
1.23094e-06
1.23308e-06
1.23404e-06
1.23285e-06
1.23094e-06
1.23096e-06
1.23099e-06
1.23101e-06
1.23102e-06
1.23101e-06
1.23099e-06
1.23096e-06
1.23094e-06
1.23309e-06
1.23404e-06
1.23383e-06
1.23265e-06
1.23095e-06
1.23097e-06
1.23099e-06
1.231e-06
1.23099e-06
1.23097e-06
1.23095e-06
1.23284e-06
1.23312e-06
1.23405e-06
1.23391e-06
1.23301e-06
1.23263e-06
1.23095e-06
1.23096e-06
1.23097e-06
1.23096e-06
1.23095e-06
1.23281e-06
1.23303e-06
1.23319e-06
1.23387e-06
1.23301e-06
1.23265e-06
1.23094e-06
1.23094e-06
1.23094e-06
1.23284e-06
1.23303e-06
1.23316e-06
1.23404e-06
1.23387e-06
1.23309e-06
1.2331e-06
1.23308e-06
1.23309e-06
1.23312e-06
1.23319e-06
1.23404e-06
1.23393e-06
1.23404e-06
1.23404e-06
1.23404e-06
1.23405e-06
1.22314e-06
1.22214e-06
1.22206e-06
1.22211e-06
1.2231e-06
1.22317e-06
1.22319e-06
1.22228e-06
1.22177e-06
1.22019e-06
1.2202e-06
1.22019e-06
1.22191e-06
1.22228e-06
1.22313e-06
1.22228e-06
1.22174e-06
1.2202e-06
1.22021e-06
1.22021e-06
1.22021e-06
1.2202e-06
1.22189e-06
1.22227e-06
1.22314e-06
1.22314e-06
1.22177e-06
1.2202e-06
1.22021e-06
1.22023e-06
1.22023e-06
1.22023e-06
1.22021e-06
1.2202e-06
1.22191e-06
1.22236e-06
1.2232e-06
1.22214e-06
1.22019e-06
1.22021e-06
1.22023e-06
1.22024e-06
1.22024e-06
1.22024e-06
1.22023e-06
1.22021e-06
1.22019e-06
1.22237e-06
1.22331e-06
1.22206e-06
1.2202e-06
1.22021e-06
1.22023e-06
1.22024e-06
1.22024e-06
1.22024e-06
1.22023e-06
1.22021e-06
1.2202e-06
1.22235e-06
1.2233e-06
1.22211e-06
1.22019e-06
1.22021e-06
1.22023e-06
1.22024e-06
1.22024e-06
1.22024e-06
1.22023e-06
1.22021e-06
1.22019e-06
1.22236e-06
1.2233e-06
1.2231e-06
1.22191e-06
1.2202e-06
1.22021e-06
1.22023e-06
1.22023e-06
1.22023e-06
1.22021e-06
1.2202e-06
1.2221e-06
1.22238e-06
1.22332e-06
1.22317e-06
1.22228e-06
1.22189e-06
1.2202e-06
1.22021e-06
1.22021e-06
1.22021e-06
1.2202e-06
1.22207e-06
1.22229e-06
1.22245e-06
1.22313e-06
1.22227e-06
1.22191e-06
1.22019e-06
1.2202e-06
1.22019e-06
1.2221e-06
1.22229e-06
1.22243e-06
1.22331e-06
1.22314e-06
1.22236e-06
1.22237e-06
1.22235e-06
1.22236e-06
1.22238e-06
1.22245e-06
1.22331e-06
1.2232e-06
1.22331e-06
1.2233e-06
1.2233e-06
1.22332e-06
1.21241e-06
1.2114e-06
1.21133e-06
1.21138e-06
1.21236e-06
1.21244e-06
1.21245e-06
1.21154e-06
1.21103e-06
1.20946e-06
1.20946e-06
1.20946e-06
1.21117e-06
1.21154e-06
1.2124e-06
1.21154e-06
1.211e-06
1.20946e-06
1.20946e-06
1.20947e-06
1.20946e-06
1.20946e-06
1.21115e-06
1.21154e-06
1.2124e-06
1.21241e-06
1.21103e-06
1.20946e-06
1.20947e-06
1.20947e-06
1.20947e-06
1.20947e-06
1.20947e-06
1.20946e-06
1.21117e-06
1.21162e-06
1.21247e-06
1.2114e-06
1.20946e-06
1.20946e-06
1.20947e-06
1.20948e-06
1.20948e-06
1.20948e-06
1.20947e-06
1.20946e-06
1.20946e-06
1.21163e-06
1.21257e-06
1.21133e-06
1.20946e-06
1.20947e-06
1.20947e-06
1.20948e-06
1.20948e-06
1.20948e-06
1.20947e-06
1.20947e-06
1.20946e-06
1.21161e-06
1.21257e-06
1.21138e-06
1.20946e-06
1.20946e-06
1.20947e-06
1.20948e-06
1.20948e-06
1.20948e-06
1.20947e-06
1.20946e-06
1.20946e-06
1.21162e-06
1.21257e-06
1.21236e-06
1.21117e-06
1.20946e-06
1.20947e-06
1.20947e-06
1.20947e-06
1.20947e-06
1.20947e-06
1.20946e-06
1.21136e-06
1.21165e-06
1.21258e-06
1.21244e-06
1.21154e-06
1.21115e-06
1.20946e-06
1.20946e-06
1.20947e-06
1.20946e-06
1.20946e-06
1.21133e-06
1.21156e-06
1.21172e-06
1.2124e-06
1.21154e-06
1.21117e-06
1.20946e-06
1.20946e-06
1.20946e-06
1.21136e-06
1.21156e-06
1.21169e-06
1.21257e-06
1.2124e-06
1.21162e-06
1.21163e-06
1.21161e-06
1.21162e-06
1.21165e-06
1.21172e-06
1.21257e-06
1.21247e-06
1.21257e-06
1.21257e-06
1.21257e-06
1.21258e-06
1.20167e-06
1.20067e-06
1.20059e-06
1.20064e-06
1.20163e-06
1.2017e-06
1.20172e-06
1.20081e-06
1.2003e-06
1.19872e-06
1.19872e-06
1.19872e-06
1.20044e-06
1.2008e-06
1.20166e-06
1.20081e-06
1.20026e-06
1.19872e-06
1.19872e-06
1.19872e-06
1.19872e-06
1.19872e-06
1.20041e-06
1.2008e-06
1.20167e-06
1.20167e-06
1.2003e-06
1.19872e-06
1.19872e-06
1.19873e-06
1.19873e-06
1.19873e-06
1.19872e-06
1.19872e-06
1.20044e-06
1.20089e-06
1.20173e-06
1.20067e-06
1.19872e-06
1.19872e-06
1.19873e-06
1.19873e-06
1.19873e-06
1.19873e-06
1.19873e-06
1.19872e-06
1.19872e-06
1.2009e-06
1.20184e-06
1.20059e-06
1.19872e-06
1.19872e-06
1.19873e-06
1.19873e-06
1.19873e-06
1.19873e-06
1.19873e-06
1.19872e-06
1.19872e-06
1.20087e-06
1.20183e-06
1.20064e-06
1.19872e-06
1.19872e-06
1.19873e-06
1.19873e-06
1.19873e-06
1.19873e-06
1.19873e-06
1.19872e-06
1.19872e-06
1.20088e-06
1.20183e-06
1.20163e-06
1.20044e-06
1.19872e-06
1.19872e-06
1.19873e-06
1.19873e-06
1.19873e-06
1.19872e-06
1.19872e-06
1.20063e-06
1.20091e-06
1.20185e-06
1.2017e-06
1.2008e-06
1.20041e-06
1.19872e-06
1.19872e-06
1.19872e-06
1.19872e-06
1.19872e-06
1.20059e-06
1.20082e-06
1.20098e-06
1.20167e-06
1.2008e-06
1.20044e-06
1.19872e-06
1.19872e-06
1.19872e-06
1.20063e-06
1.20082e-06
1.20096e-06
1.20184e-06
1.20167e-06
1.20089e-06
1.2009e-06
1.20087e-06
1.20088e-06
1.20091e-06
1.20098e-06
1.20184e-06
1.20173e-06
1.20184e-06
1.20183e-06
1.20183e-06
1.20185e-06
1.19094e-06
1.18993e-06
1.18986e-06
1.18991e-06
1.19089e-06
1.19097e-06
1.19098e-06
1.19007e-06
1.18956e-06
1.18798e-06
1.18798e-06
1.18798e-06
1.1897e-06
1.19007e-06
1.19093e-06
1.19007e-06
1.18953e-06
1.18798e-06
1.18798e-06
1.18798e-06
1.18798e-06
1.18798e-06
1.18968e-06
1.19007e-06
1.19093e-06
1.19094e-06
1.18956e-06
1.18798e-06
1.18798e-06
1.18799e-06
1.18799e-06
1.18799e-06
1.18798e-06
1.18798e-06
1.1897e-06
1.19015e-06
1.191e-06
1.18993e-06
1.18798e-06
1.18798e-06
1.18799e-06
1.18799e-06
1.18799e-06
1.18799e-06
1.18799e-06
1.18798e-06
1.18798e-06
1.19016e-06
1.1911e-06
1.18986e-06
1.18798e-06
1.18798e-06
1.18799e-06
1.18799e-06
1.18799e-06
1.18799e-06
1.18799e-06
1.18798e-06
1.18798e-06
1.19014e-06
1.1911e-06
1.18991e-06
1.18798e-06
1.18798e-06
1.18799e-06
1.18799e-06
1.18799e-06
1.18799e-06
1.18799e-06
1.18798e-06
1.18798e-06
1.19015e-06
1.1911e-06
1.19089e-06
1.1897e-06
1.18798e-06
1.18798e-06
1.18799e-06
1.18799e-06
1.18799e-06
1.18798e-06
1.18798e-06
1.18989e-06
1.19018e-06
1.19111e-06
1.19097e-06
1.19007e-06
1.18968e-06
1.18798e-06
1.18798e-06
1.18798e-06
1.18798e-06
1.18798e-06
1.18986e-06
1.19009e-06
1.19025e-06
1.19093e-06
1.19007e-06
1.1897e-06
1.18798e-06
1.18798e-06
1.18798e-06
1.18989e-06
1.19009e-06
1.19022e-06
1.1911e-06
1.19093e-06
1.19015e-06
1.19016e-06
1.19014e-06
1.19015e-06
1.19018e-06
1.19025e-06
1.1911e-06
1.191e-06
1.1911e-06
1.1911e-06
1.1911e-06
1.19111e-06
1.1802e-06
1.1792e-06
1.17912e-06
1.17917e-06
1.18016e-06
1.18023e-06
1.18025e-06
1.17934e-06
1.17882e-06
1.17724e-06
1.17725e-06
1.17724e-06
1.17897e-06
1.17933e-06
1.18019e-06
1.17934e-06
1.17879e-06
1.17725e-06
1.17725e-06
1.17725e-06
1.17725e-06
1.17725e-06
1.17894e-06
1.17933e-06
1.1802e-06
1.1802e-06
1.17882e-06
1.17725e-06
1.17725e-06
1.17725e-06
1.17725e-06
1.17725e-06
1.17725e-06
1.17725e-06
1.17896e-06
1.17941e-06
1.18026e-06
1.1792e-06
1.17724e-06
1.17725e-06
1.17725e-06
1.17725e-06
1.17725e-06
1.17725e-06
1.17725e-06
1.17725e-06
1.17724e-06
1.17942e-06
1.18037e-06
1.17912e-06
1.17725e-06
1.17725e-06
1.17725e-06
1.17725e-06
1.17725e-06
1.17725e-06
1.17725e-06
1.17725e-06
1.17725e-06
1.1794e-06
1.18036e-06
1.17917e-06
1.17724e-06
1.17725e-06
1.17725e-06
1.17725e-06
1.17725e-06
1.17725e-06
1.17725e-06
1.17725e-06
1.17724e-06
1.17941e-06
1.18036e-06
1.18016e-06
1.17897e-06
1.17725e-06
1.17725e-06
1.17725e-06
1.17725e-06
1.17725e-06
1.17725e-06
1.17725e-06
1.17916e-06
1.17944e-06
1.18038e-06
1.18023e-06
1.17933e-06
1.17894e-06
1.17725e-06
1.17725e-06
1.17725e-06
1.17725e-06
1.17725e-06
1.17912e-06
1.17935e-06
1.17951e-06
1.18019e-06
1.17933e-06
1.17896e-06
1.17724e-06
1.17725e-06
1.17724e-06
1.17916e-06
1.17935e-06
1.17949e-06
1.18037e-06
1.1802e-06
1.17941e-06
1.17942e-06
1.1794e-06
1.17941e-06
1.17944e-06
1.17951e-06
1.18037e-06
1.18026e-06
1.18037e-06
1.18036e-06
1.18036e-06
1.18038e-06
1.16947e-06
1.16846e-06
1.16839e-06
1.16844e-06
1.16942e-06
1.1695e-06
1.16951e-06
1.1686e-06
1.16809e-06
1.16651e-06
1.16651e-06
1.16651e-06
1.16823e-06
1.1686e-06
1.16946e-06
1.1686e-06
1.16806e-06
1.16651e-06
1.16651e-06
1.16651e-06
1.16651e-06
1.16651e-06
1.16821e-06
1.16859e-06
1.16946e-06
1.16947e-06
1.16809e-06
1.16651e-06
1.16651e-06
1.16651e-06
1.16651e-06
1.16651e-06
1.16651e-06
1.16651e-06
1.16823e-06
1.16868e-06
1.16953e-06
1.16846e-06
1.16651e-06
1.16651e-06
1.16651e-06
1.16651e-06
1.16651e-06
1.16651e-06
1.16651e-06
1.16651e-06
1.16651e-06
1.16869e-06
1.16963e-06
1.16839e-06
1.16651e-06
1.16651e-06
1.16651e-06
1.16651e-06
1.16651e-06
1.16651e-06
1.16651e-06
1.16651e-06
1.16651e-06
1.16867e-06
1.16963e-06
1.16844e-06
1.16651e-06
1.16651e-06
1.16651e-06
1.16651e-06
1.16651e-06
1.16651e-06
1.16651e-06
1.16651e-06
1.16651e-06
1.16868e-06
1.16963e-06
1.16942e-06
1.16823e-06
1.16651e-06
1.16651e-06
1.16651e-06
1.16651e-06
1.16651e-06
1.16651e-06
1.16651e-06
1.16842e-06
1.16871e-06
1.16964e-06
1.1695e-06
1.1686e-06
1.16821e-06
1.16651e-06
1.16651e-06
1.16651e-06
1.16651e-06
1.16651e-06
1.16838e-06
1.16861e-06
1.16878e-06
1.16946e-06
1.16859e-06
1.16823e-06
1.16651e-06
1.16651e-06
1.16651e-06
1.16842e-06
1.16861e-06
1.16875e-06
1.16963e-06
1.16946e-06
1.16868e-06
1.16869e-06
1.16867e-06
1.16868e-06
1.16871e-06
1.16878e-06
1.16963e-06
1.16953e-06
1.16963e-06
1.16963e-06
1.16963e-06
1.16964e-06
1.15873e-06
1.15772e-06
1.15765e-06
1.1577e-06
1.15869e-06
1.15876e-06
1.15877e-06
1.15787e-06
1.15735e-06
1.15577e-06
1.15577e-06
1.15577e-06
1.15749e-06
1.15786e-06
1.15872e-06
1.15787e-06
1.15732e-06
1.15577e-06
1.15577e-06
1.15577e-06
1.15577e-06
1.15577e-06
1.15747e-06
1.15786e-06
1.15873e-06
1.15873e-06
1.15735e-06
1.15577e-06
1.15577e-06
1.15577e-06
1.15577e-06
1.15577e-06
1.15577e-06
1.15577e-06
1.15749e-06
1.15794e-06
1.15879e-06
1.15772e-06
1.15577e-06
1.15577e-06
1.15577e-06
1.15577e-06
1.15577e-06
1.15577e-06
1.15577e-06
1.15577e-06
1.15577e-06
1.15795e-06
1.1589e-06
1.15765e-06
1.15577e-06
1.15577e-06
1.15577e-06
1.15577e-06
1.15577e-06
1.15577e-06
1.15577e-06
1.15577e-06
1.15577e-06
1.15793e-06
1.15889e-06
1.1577e-06
1.15577e-06
1.15577e-06
1.15577e-06
1.15577e-06
1.15577e-06
1.15577e-06
1.15577e-06
1.15577e-06
1.15577e-06
1.15794e-06
1.15889e-06
1.15869e-06
1.15749e-06
1.15577e-06
1.15577e-06
1.15577e-06
1.15577e-06
1.15577e-06
1.15577e-06
1.15577e-06
1.15768e-06
1.15797e-06
1.15891e-06
1.15876e-06
1.15786e-06
1.15747e-06
1.15577e-06
1.15577e-06
1.15577e-06
1.15577e-06
1.15577e-06
1.15765e-06
1.15788e-06
1.15804e-06
1.15872e-06
1.15786e-06
1.15749e-06
1.15577e-06
1.15577e-06
1.15577e-06
1.15768e-06
1.15788e-06
1.15802e-06
1.1589e-06
1.15873e-06
1.15794e-06
1.15795e-06
1.15793e-06
1.15794e-06
1.15797e-06
1.15804e-06
1.1589e-06
1.15879e-06
1.1589e-06
1.15889e-06
1.15889e-06
1.15891e-06
1.148e-06
1.14699e-06
1.14691e-06
1.14696e-06
1.14795e-06
1.14803e-06
1.14804e-06
1.14713e-06
1.14662e-06
1.14504e-06
1.14504e-06
1.14504e-06
1.14676e-06
1.14713e-06
1.14799e-06
1.14713e-06
1.14658e-06
1.14504e-06
1.14504e-06
1.14504e-06
1.14504e-06
1.14504e-06
1.14673e-06
1.14712e-06
1.14799e-06
1.148e-06
1.14662e-06
1.14504e-06
1.14504e-06
1.14504e-06
1.14504e-06
1.14504e-06
1.14504e-06
1.14504e-06
1.14676e-06
1.14721e-06
1.14805e-06
1.14699e-06
1.14504e-06
1.14504e-06
1.14504e-06
1.14504e-06
1.14504e-06
1.14504e-06
1.14504e-06
1.14504e-06
1.14504e-06
1.14722e-06
1.14816e-06
1.14691e-06
1.14504e-06
1.14504e-06
1.14504e-06
1.14504e-06
1.14504e-06
1.14504e-06
1.14504e-06
1.14504e-06
1.14504e-06
1.14719e-06
1.14815e-06
1.14696e-06
1.14504e-06
1.14504e-06
1.14504e-06
1.14504e-06
1.14504e-06
1.14504e-06
1.14504e-06
1.14504e-06
1.14504e-06
1.1472e-06
1.14816e-06
1.14795e-06
1.14676e-06
1.14504e-06
1.14504e-06
1.14504e-06
1.14504e-06
1.14504e-06
1.14504e-06
1.14504e-06
1.14695e-06
1.14723e-06
1.14817e-06
1.14803e-06
1.14713e-06
1.14673e-06
1.14504e-06
1.14504e-06
1.14504e-06
1.14504e-06
1.14504e-06
1.14691e-06
1.14714e-06
1.14731e-06
1.14799e-06
1.14712e-06
1.14676e-06
1.14504e-06
1.14504e-06
1.14504e-06
1.14695e-06
1.14714e-06
1.14728e-06
1.14816e-06
1.14799e-06
1.14721e-06
1.14722e-06
1.14719e-06
1.1472e-06
1.14723e-06
1.14731e-06
1.14816e-06
1.14805e-06
1.14816e-06
1.14815e-06
1.14816e-06
1.14817e-06
1.13726e-06
1.13625e-06
1.13618e-06
1.13623e-06
1.13722e-06
1.13729e-06
1.1373e-06
1.13639e-06
1.13588e-06
1.1343e-06
1.1343e-06
1.1343e-06
1.13602e-06
1.13639e-06
1.13725e-06
1.13639e-06
1.13585e-06
1.1343e-06
1.1343e-06
1.1343e-06
1.1343e-06
1.1343e-06
1.136e-06
1.13639e-06
1.13726e-06
1.13726e-06
1.13588e-06
1.1343e-06
1.1343e-06
1.1343e-06
1.1343e-06
1.1343e-06
1.1343e-06
1.1343e-06
1.13602e-06
1.13647e-06
1.13732e-06
1.13625e-06
1.1343e-06
1.1343e-06
1.1343e-06
1.1343e-06
1.1343e-06
1.1343e-06
1.1343e-06
1.1343e-06
1.1343e-06
1.13648e-06
1.13743e-06
1.13618e-06
1.1343e-06
1.1343e-06
1.1343e-06
1.1343e-06
1.1343e-06
1.1343e-06
1.1343e-06
1.1343e-06
1.1343e-06
1.13646e-06
1.13742e-06
1.13623e-06
1.1343e-06
1.1343e-06
1.1343e-06
1.1343e-06
1.1343e-06
1.1343e-06
1.1343e-06
1.1343e-06
1.1343e-06
1.13647e-06
1.13742e-06
1.13722e-06
1.13602e-06
1.1343e-06
1.1343e-06
1.1343e-06
1.1343e-06
1.1343e-06
1.1343e-06
1.1343e-06
1.13621e-06
1.1365e-06
1.13743e-06
1.13729e-06
1.13639e-06
1.136e-06
1.1343e-06
1.1343e-06
1.1343e-06
1.1343e-06
1.1343e-06
1.13618e-06
1.13641e-06
1.13657e-06
1.13725e-06
1.13639e-06
1.13602e-06
1.1343e-06
1.1343e-06
1.1343e-06
1.13621e-06
1.13641e-06
1.13654e-06
1.13742e-06
1.13726e-06
1.13647e-06
1.13648e-06
1.13646e-06
1.13647e-06
1.1365e-06
1.13657e-06
1.13742e-06
1.13732e-06
1.13743e-06
1.13742e-06
1.13742e-06
1.13743e-06
1.12652e-06
1.12552e-06
1.12544e-06
1.12549e-06
1.12648e-06
1.12655e-06
1.12657e-06
1.12566e-06
1.12515e-06
1.12357e-06
1.12357e-06
1.12357e-06
1.12529e-06
1.12565e-06
1.12652e-06
1.12566e-06
1.12511e-06
1.12357e-06
1.12357e-06
1.12357e-06
1.12357e-06
1.12357e-06
1.12526e-06
1.12565e-06
1.12652e-06
1.12652e-06
1.12515e-06
1.12357e-06
1.12357e-06
1.12357e-06
1.12357e-06
1.12357e-06
1.12357e-06
1.12357e-06
1.12529e-06
1.12574e-06
1.12658e-06
1.12552e-06
1.12357e-06
1.12357e-06
1.12357e-06
1.12357e-06
1.12357e-06
1.12357e-06
1.12357e-06
1.12357e-06
1.12357e-06
1.12575e-06
1.12669e-06
1.12544e-06
1.12357e-06
1.12357e-06
1.12357e-06
1.12357e-06
1.12357e-06
1.12357e-06
1.12357e-06
1.12357e-06
1.12357e-06
1.12572e-06
1.12668e-06
1.12549e-06
1.12357e-06
1.12357e-06
1.12357e-06
1.12357e-06
1.12357e-06
1.12357e-06
1.12357e-06
1.12357e-06
1.12357e-06
1.12573e-06
1.12668e-06
1.12648e-06
1.12529e-06
1.12357e-06
1.12357e-06
1.12357e-06
1.12357e-06
1.12357e-06
1.12357e-06
1.12357e-06
1.12548e-06
1.12576e-06
1.1267e-06
1.12655e-06
1.12565e-06
1.12526e-06
1.12357e-06
1.12357e-06
1.12357e-06
1.12357e-06
1.12357e-06
1.12544e-06
1.12567e-06
1.12584e-06
1.12652e-06
1.12565e-06
1.12529e-06
1.12357e-06
1.12357e-06
1.12357e-06
1.12548e-06
1.12567e-06
1.12581e-06
1.12669e-06
1.12652e-06
1.12574e-06
1.12575e-06
1.12572e-06
1.12573e-06
1.12576e-06
1.12583e-06
1.12669e-06
1.12658e-06
1.12669e-06
1.12668e-06
1.12668e-06
1.1267e-06
1.11579e-06
1.11478e-06
1.11471e-06
1.11476e-06
1.11574e-06
1.11582e-06
1.11583e-06
1.11492e-06
1.11441e-06
1.11283e-06
1.11283e-06
1.11283e-06
1.11455e-06
1.11492e-06
1.11578e-06
1.11492e-06
1.11438e-06
1.11283e-06
1.11283e-06
1.11283e-06
1.11283e-06
1.11283e-06
1.11453e-06
1.11492e-06
1.11578e-06
1.11579e-06
1.11441e-06
1.11283e-06
1.11283e-06
1.11283e-06
1.11283e-06
1.11283e-06
1.11283e-06
1.11283e-06
1.11455e-06
1.115e-06
1.11585e-06
1.11478e-06
1.11283e-06
1.11283e-06
1.11283e-06
1.11283e-06
1.11283e-06
1.11283e-06
1.11283e-06
1.11283e-06
1.11283e-06
1.11501e-06
1.11595e-06
1.11471e-06
1.11283e-06
1.11283e-06
1.11283e-06
1.11283e-06
1.11283e-06
1.11283e-06
1.11283e-06
1.11283e-06
1.11283e-06
1.11499e-06
1.11595e-06
1.11476e-06
1.11283e-06
1.11283e-06
1.11283e-06
1.11283e-06
1.11283e-06
1.11283e-06
1.11283e-06
1.11283e-06
1.11283e-06
1.115e-06
1.11595e-06
1.11574e-06
1.11455e-06
1.11283e-06
1.11283e-06
1.11283e-06
1.11283e-06
1.11283e-06
1.11283e-06
1.11283e-06
1.11474e-06
1.11503e-06
1.11596e-06
1.11582e-06
1.11492e-06
1.11453e-06
1.11283e-06
1.11283e-06
1.11283e-06
1.11283e-06
1.11283e-06
1.11471e-06
1.11494e-06
1.1151e-06
1.11578e-06
1.11492e-06
1.11455e-06
1.11283e-06
1.11283e-06
1.11283e-06
1.11474e-06
1.11494e-06
1.11507e-06
1.11595e-06
1.11578e-06
1.115e-06
1.11501e-06
1.11499e-06
1.115e-06
1.11503e-06
1.1151e-06
1.11595e-06
1.11585e-06
1.11595e-06
1.11595e-06
1.11595e-06
1.11596e-06
1.10505e-06
1.10405e-06
1.10397e-06
1.10402e-06
1.10501e-06
1.10508e-06
1.1051e-06
1.10419e-06
1.10367e-06
1.10209e-06
1.10209e-06
1.10209e-06
1.10382e-06
1.10418e-06
1.10504e-06
1.10419e-06
1.10364e-06
1.10209e-06
1.10209e-06
1.10209e-06
1.10209e-06
1.10209e-06
1.10379e-06
1.10418e-06
1.10505e-06
1.10505e-06
1.10367e-06
1.10209e-06
1.10209e-06
1.10209e-06
1.10209e-06
1.10209e-06
1.10209e-06
1.10209e-06
1.10381e-06
1.10426e-06
1.10511e-06
1.10405e-06
1.10209e-06
1.10209e-06
1.10209e-06
1.10209e-06
1.10209e-06
1.10209e-06
1.10209e-06
1.10209e-06
1.10209e-06
1.10427e-06
1.10522e-06
1.10397e-06
1.10209e-06
1.10209e-06
1.10209e-06
1.10209e-06
1.10209e-06
1.10209e-06
1.10209e-06
1.10209e-06
1.10209e-06
1.10425e-06
1.10521e-06
1.10402e-06
1.10209e-06
1.10209e-06
1.10209e-06
1.10209e-06
1.10209e-06
1.10209e-06
1.10209e-06
1.10209e-06
1.10209e-06
1.10426e-06
1.10521e-06
1.10501e-06
1.10382e-06
1.10209e-06
1.10209e-06
1.10209e-06
1.10209e-06
1.10209e-06
1.10209e-06
1.10209e-06
1.10401e-06
1.10429e-06
1.10523e-06
1.10508e-06
1.10418e-06
1.10379e-06
1.10209e-06
1.10209e-06
1.10209e-06
1.10209e-06
1.10209e-06
1.10397e-06
1.1042e-06
1.10436e-06
1.10504e-06
1.10418e-06
1.10381e-06
1.10209e-06
1.10209e-06
1.10209e-06
1.10401e-06
1.1042e-06
1.10434e-06
1.10522e-06
1.10505e-06
1.10426e-06
1.10427e-06
1.10425e-06
1.10426e-06
1.10429e-06
1.10436e-06
1.10522e-06
1.10511e-06
1.10522e-06
1.10521e-06
1.10521e-06
1.10523e-06
1.09432e-06
1.09331e-06
1.09324e-06
1.09329e-06
1.09427e-06
1.09435e-06
1.09436e-06
1.09345e-06
1.09294e-06
1.09136e-06
1.09136e-06
1.09136e-06
1.09308e-06
1.09345e-06
1.09431e-06
1.09345e-06
1.09291e-06
1.09136e-06
1.09136e-06
1.09136e-06
1.09136e-06
1.09136e-06
1.09305e-06
1.09344e-06
1.09431e-06
1.09432e-06
1.09294e-06
1.09136e-06
1.09136e-06
1.09136e-06
1.09136e-06
1.09136e-06
1.09136e-06
1.09136e-06
1.09308e-06
1.09353e-06
1.09438e-06
1.09331e-06
1.09136e-06
1.09136e-06
1.09136e-06
1.09136e-06
1.09136e-06
1.09136e-06
1.09136e-06
1.09136e-06
1.09136e-06
1.09354e-06
1.09448e-06
1.09324e-06
1.09136e-06
1.09136e-06
1.09136e-06
1.09136e-06
1.09136e-06
1.09136e-06
1.09136e-06
1.09136e-06
1.09136e-06
1.09352e-06
1.09448e-06
1.09329e-06
1.09136e-06
1.09136e-06
1.09136e-06
1.09136e-06
1.09136e-06
1.09136e-06
1.09136e-06
1.09136e-06
1.09136e-06
1.09353e-06
1.09448e-06
1.09427e-06
1.09308e-06
1.09136e-06
1.09136e-06
1.09136e-06
1.09136e-06
1.09136e-06
1.09136e-06
1.09136e-06
1.09327e-06
1.09356e-06
1.09449e-06
1.09435e-06
1.09345e-06
1.09305e-06
1.09136e-06
1.09136e-06
1.09136e-06
1.09136e-06
1.09136e-06
1.09323e-06
1.09346e-06
1.09363e-06
1.09431e-06
1.09344e-06
1.09308e-06
1.09136e-06
1.09136e-06
1.09136e-06
1.09327e-06
1.09346e-06
1.0936e-06
1.09448e-06
1.09431e-06
1.09353e-06
1.09354e-06
1.09352e-06
1.09353e-06
1.09356e-06
1.09363e-06
1.09448e-06
1.09438e-06
1.09448e-06
1.09448e-06
1.09448e-06
1.09449e-06
1.08358e-06
1.08257e-06
1.0825e-06
1.08255e-06
1.08354e-06
1.08361e-06
1.08362e-06
1.08272e-06
1.0822e-06
1.08062e-06
1.08062e-06
1.08062e-06
1.08234e-06
1.08271e-06
1.08357e-06
1.08272e-06
1.08217e-06
1.08062e-06
1.08062e-06
1.08062e-06
1.08062e-06
1.08062e-06
1.08232e-06
1.08271e-06
1.08358e-06
1.08358e-06
1.0822e-06
1.08062e-06
1.08062e-06
1.08062e-06
1.08062e-06
1.08062e-06
1.08062e-06
1.08062e-06
1.08234e-06
1.08279e-06
1.08364e-06
1.08257e-06
1.08062e-06
1.08062e-06
1.08062e-06
1.08062e-06
1.08062e-06
1.08062e-06
1.08062e-06
1.08062e-06
1.08062e-06
1.0828e-06
1.08375e-06
1.0825e-06
1.08062e-06
1.08062e-06
1.08062e-06
1.08062e-06
1.08062e-06
1.08062e-06
1.08062e-06
1.08062e-06
1.08062e-06
1.08278e-06
1.08374e-06
1.08255e-06
1.08062e-06
1.08062e-06
1.08062e-06
1.08062e-06
1.08062e-06
1.08062e-06
1.08062e-06
1.08062e-06
1.08062e-06
1.08279e-06
1.08374e-06
1.08354e-06
1.08234e-06
1.08062e-06
1.08062e-06
1.08062e-06
1.08062e-06
1.08062e-06
1.08062e-06
1.08062e-06
1.08253e-06
1.08282e-06
1.08376e-06
1.08361e-06
1.08271e-06
1.08232e-06
1.08062e-06
1.08062e-06
1.08062e-06
1.08062e-06
1.08062e-06
1.0825e-06
1.08273e-06
1.08289e-06
1.08357e-06
1.08271e-06
1.08234e-06
1.08062e-06
1.08062e-06
1.08062e-06
1.08253e-06
1.08273e-06
1.08287e-06
1.08375e-06
1.08358e-06
1.08279e-06
1.0828e-06
1.08278e-06
1.08279e-06
1.08282e-06
1.08289e-06
1.08375e-06
1.08364e-06
1.08375e-06
1.08374e-06
1.08374e-06
1.08376e-06
1.07285e-06
1.07184e-06
1.07176e-06
1.07181e-06
1.0728e-06
1.07288e-06
1.07289e-06
1.07198e-06
1.07147e-06
1.06989e-06
1.06989e-06
1.06989e-06
1.07161e-06
1.07198e-06
1.07284e-06
1.07198e-06
1.07143e-06
1.06989e-06
1.06989e-06
1.06989e-06
1.06989e-06
1.06989e-06
1.07158e-06
1.07197e-06
1.07284e-06
1.07285e-06
1.07147e-06
1.06989e-06
1.06989e-06
1.06989e-06
1.06989e-06
1.06989e-06
1.06989e-06
1.06989e-06
1.07161e-06
1.07206e-06
1.0729e-06
1.07184e-06
1.06989e-06
1.06989e-06
1.06989e-06
1.06989e-06
1.06989e-06
1.06989e-06
1.06989e-06
1.06989e-06
1.06989e-06
1.07207e-06
1.07301e-06
1.07176e-06
1.06989e-06
1.06989e-06
1.06989e-06
1.06989e-06
1.06989e-06
1.06989e-06
1.06989e-06
1.06989e-06
1.06989e-06
1.07204e-06
1.073e-06
1.07181e-06
1.06989e-06
1.06989e-06
1.06989e-06
1.06989e-06
1.06989e-06
1.06989e-06
1.06989e-06
1.06989e-06
1.06989e-06
1.07205e-06
1.07301e-06
1.0728e-06
1.07161e-06
1.06989e-06
1.06989e-06
1.06989e-06
1.06989e-06
1.06989e-06
1.06989e-06
1.06989e-06
1.0718e-06
1.07208e-06
1.07302e-06
1.07288e-06
1.07198e-06
1.07158e-06
1.06989e-06
1.06989e-06
1.06989e-06
1.06989e-06
1.06989e-06
1.07176e-06
1.07199e-06
1.07216e-06
1.07284e-06
1.07197e-06
1.07161e-06
1.06989e-06
1.06989e-06
1.06989e-06
1.0718e-06
1.07199e-06
1.07213e-06
1.07301e-06
1.07284e-06
1.07206e-06
1.07207e-06
1.07204e-06
1.07205e-06
1.07208e-06
1.07216e-06
1.07301e-06
1.0729e-06
1.07301e-06
1.073e-06
1.07301e-06
1.07302e-06
1.06211e-06
1.0611e-06
1.06103e-06
1.06108e-06
1.06207e-06
1.06214e-06
1.06215e-06
1.06124e-06
1.06073e-06
1.05915e-06
1.05915e-06
1.05915e-06
1.06087e-06
1.06124e-06
1.0621e-06
1.06124e-06
1.0607e-06
1.05915e-06
1.05915e-06
1.05915e-06
1.05915e-06
1.05915e-06
1.06085e-06
1.06124e-06
1.06211e-06
1.06211e-06
1.06073e-06
1.05915e-06
1.05915e-06
1.05915e-06
1.05915e-06
1.05915e-06
1.05915e-06
1.05915e-06
1.06087e-06
1.06132e-06
1.06217e-06
1.0611e-06
1.05915e-06
1.05915e-06
1.05915e-06
1.05915e-06
1.05915e-06
1.05915e-06
1.05915e-06
1.05915e-06
1.05915e-06
1.06133e-06
1.06228e-06
1.06103e-06
1.05915e-06
1.05915e-06
1.05915e-06
1.05915e-06
1.05915e-06
1.05915e-06
1.05915e-06
1.05915e-06
1.05915e-06
1.06131e-06
1.06227e-06
1.06108e-06
1.05915e-06
1.05915e-06
1.05915e-06
1.05915e-06
1.05915e-06
1.05915e-06