/*--------------------------------*- C++ -*----------------------------------*\
| =========                 |                                                 |
| \\      /  F ield         | OpenFOAM: The Open Source CFD Toolbox           |
|  \\    /   O peration     | Version:  v2012                                 |
|   \\  /    A nd           | Website:  www.openfoam.com                      |
|    \\/     M anipulation  |                                                 |
\*---------------------------------------------------------------------------*/
FoamFile
{
    version     2.0;
    format      ascii;
    class       volScalarField;
    location    "92";
    object      p;
}
// * * * * * * * * * * * * * * * * * * * * * * * * * * * * * * * * * * * * * //

dimensions      [0 2 -2 0 0 0 0];


internalField   nonuniform List<scalar> 
292667
(
9.62238e-07
9.53564e-07
9.52961e-07
9.53012e-07
9.53808e-07
9.63045e-07
9.53764e-07
9.51722e-07
9.50509e-07
9.50007e-07
9.5007e-07
9.5072e-07
9.52108e-07
9.54313e-07
9.53764e-07
9.51133e-07
9.49462e-07
9.48534e-07
9.48142e-07
9.48193e-07
9.48699e-07
9.49773e-07
9.51644e-07
9.54437e-07
9.62239e-07
9.51722e-07
9.49462e-07
9.48102e-07
9.4734e-07
9.47013e-07
9.47057e-07
9.47479e-07
9.48364e-07
9.49903e-07
9.52418e-07
9.61601e-07
9.53564e-07
9.50509e-07
9.48534e-07
9.4734e-07
9.46662e-07
9.46369e-07
9.46409e-07
9.46789e-07
9.47577e-07
9.48932e-07
9.51158e-07
9.56725e-07
9.52961e-07
9.50007e-07
9.48142e-07
9.47013e-07
9.46369e-07
9.46089e-07
9.46127e-07
9.46491e-07
9.47241e-07
9.48524e-07
9.50637e-07
9.55275e-07
9.53012e-07
9.5007e-07
9.48193e-07
9.47057e-07
9.46409e-07
9.46127e-07
9.46167e-07
9.46533e-07
9.47288e-07
9.48581e-07
9.50712e-07
9.5556e-07
9.53808e-07
9.5072e-07
9.48699e-07
9.47479e-07
9.46789e-07
9.46491e-07
9.46533e-07
9.46922e-07
9.47728e-07
9.49117e-07
9.51404e-07
9.57e-07
9.63045e-07
9.52108e-07
9.49773e-07
9.48364e-07
9.47577e-07
9.47241e-07
9.47288e-07
9.47728e-07
9.4865e-07
9.50258e-07
9.52859e-07
9.61424e-07
9.54313e-07
9.51644e-07
9.49903e-07
9.48932e-07
9.48524e-07
9.48581e-07
9.49117e-07
9.50258e-07
9.5223e-07
9.57658e-07
9.54437e-07
9.52418e-07
9.51158e-07
9.50637e-07
9.50712e-07
9.51404e-07
9.52859e-07
9.57658e-07
9.61601e-07
9.56726e-07
9.55275e-07
9.5556e-07
9.57e-07
9.61424e-07
9.39985e-07
9.39478e-07
9.39437e-07
9.39488e-07
9.40057e-07
9.39899e-07
9.39998e-07
9.39602e-07
9.39308e-07
9.38334e-07
9.38317e-07
9.38334e-07
9.3947e-07
9.39674e-07
9.40071e-07
9.39602e-07
9.39281e-07
9.38361e-07
9.38325e-07
9.38356e-07
9.38326e-07
9.38362e-07
9.39455e-07
9.39666e-07
9.40063e-07
9.39985e-07
9.39308e-07
9.38361e-07
9.38305e-07
9.38322e-07
9.38299e-07
9.38322e-07
9.38305e-07
9.38362e-07
9.39462e-07
9.39706e-07
9.40064e-07
9.39478e-07
9.38334e-07
9.38326e-07
9.38322e-07
9.3828e-07
9.38284e-07
9.3828e-07
9.38322e-07
9.38326e-07
9.38334e-07
9.39876e-07
9.40257e-07
9.39437e-07
9.38317e-07
9.38356e-07
9.38299e-07
9.38284e-07
9.38271e-07
9.38285e-07
9.38299e-07
9.38357e-07
9.38318e-07
9.39896e-07
9.4021e-07
9.39488e-07
9.38334e-07
9.38326e-07
9.38322e-07
9.3828e-07
9.38285e-07
9.3828e-07
9.38322e-07
9.38326e-07
9.38334e-07
9.39884e-07
9.40225e-07
9.40057e-07
9.3947e-07
9.38362e-07
9.38305e-07
9.38322e-07
9.38299e-07
9.38322e-07
9.38306e-07
9.38362e-07
9.39674e-07
9.39782e-07
9.40201e-07
9.39899e-07
9.39674e-07
9.39455e-07
9.38362e-07
9.38326e-07
9.38357e-07
9.38326e-07
9.38362e-07
9.39642e-07
9.39746e-07
9.39733e-07
9.40071e-07
9.39666e-07
9.39462e-07
9.38334e-07
9.38318e-07
9.38334e-07
9.39674e-07
9.39746e-07
9.3976e-07
9.40158e-07
9.40063e-07
9.39706e-07
9.39876e-07
9.39896e-07
9.39884e-07
9.39782e-07
9.39733e-07
9.40158e-07
9.40064e-07
9.40256e-07
9.4021e-07
9.40225e-07
9.40201e-07
9.31982e-07
9.31386e-07
9.31337e-07
9.31381e-07
9.32017e-07
9.32013e-07
9.31982e-07
9.31468e-07
9.31122e-07
9.30199e-07
9.30198e-07
9.30199e-07
9.3128e-07
9.31512e-07
9.32014e-07
9.31468e-07
9.31095e-07
9.30232e-07
9.30241e-07
9.30268e-07
9.30241e-07
9.30232e-07
9.31274e-07
9.31512e-07
9.32016e-07
9.31982e-07
9.31122e-07
9.30232e-07
9.30253e-07
9.30289e-07
9.30285e-07
9.30289e-07
9.30253e-07
9.30232e-07
9.31289e-07
9.31581e-07
9.3202e-07
9.31386e-07
9.30199e-07
9.30242e-07
9.3029e-07
9.30295e-07
9.30313e-07
9.30295e-07
9.3029e-07
9.30242e-07
9.30199e-07
9.31671e-07
9.32185e-07
9.31337e-07
9.30198e-07
9.30268e-07
9.30285e-07
9.30313e-07
9.30313e-07
9.30314e-07
9.30285e-07
9.30268e-07
9.30198e-07
9.31681e-07
9.32214e-07
9.31381e-07
9.30199e-07
9.30241e-07
9.30289e-07
9.30295e-07
9.30314e-07
9.30295e-07
9.3029e-07
9.30242e-07
9.30199e-07
9.31676e-07
9.32214e-07
9.32017e-07
9.3128e-07
9.30232e-07
9.30253e-07
9.3029e-07
9.30285e-07
9.3029e-07
9.30253e-07
9.30232e-07
9.31509e-07
9.31643e-07
9.32166e-07
9.32013e-07
9.31512e-07
9.31274e-07
9.30233e-07
9.30242e-07
9.30268e-07
9.30242e-07
9.30233e-07
9.31488e-07
9.31583e-07
9.31654e-07
9.32014e-07
9.31512e-07
9.31289e-07
9.30199e-07
9.30198e-07
9.30199e-07
9.31509e-07
9.31583e-07
9.31637e-07
9.3214e-07
9.32016e-07
9.31581e-07
9.31671e-07
9.31681e-07
9.31676e-07
9.31643e-07
9.31655e-07
9.3214e-07
9.3202e-07
9.32185e-07
9.32214e-07
9.32214e-07
9.32166e-07
9.24007e-07
9.23401e-07
9.23348e-07
9.23393e-07
9.2404e-07
9.2404e-07
9.24009e-07
9.23481e-07
9.23117e-07
9.22177e-07
9.22179e-07
9.22177e-07
9.23269e-07
9.23515e-07
9.2404e-07
9.23481e-07
9.23084e-07
9.22196e-07
9.22211e-07
9.22223e-07
9.22211e-07
9.22196e-07
9.23254e-07
9.23513e-07
9.24042e-07
9.24007e-07
9.23117e-07
9.22196e-07
9.22219e-07
9.22245e-07
9.22245e-07
9.22245e-07
9.22219e-07
9.22196e-07
9.23275e-07
9.23595e-07
9.24046e-07
9.23402e-07
9.22177e-07
9.22211e-07
9.22245e-07
9.22259e-07
9.22272e-07
9.22259e-07
9.22245e-07
9.22211e-07
9.22177e-07
9.23677e-07
9.24212e-07
9.23348e-07
9.22179e-07
9.22223e-07
9.22245e-07
9.22272e-07
9.22273e-07
9.22272e-07
9.22245e-07
9.22223e-07
9.22179e-07
9.23679e-07
9.24237e-07
9.23393e-07
9.22177e-07
9.22211e-07
9.22245e-07
9.22259e-07
9.22272e-07
9.22259e-07
9.22245e-07
9.22211e-07
9.22177e-07
9.23676e-07
9.24236e-07
9.2404e-07
9.23269e-07
9.22196e-07
9.22219e-07
9.22245e-07
9.22245e-07
9.22245e-07
9.22219e-07
9.22196e-07
9.23495e-07
9.23653e-07
9.24191e-07
9.2404e-07
9.23515e-07
9.23254e-07
9.22196e-07
9.22211e-07
9.22223e-07
9.22211e-07
9.22196e-07
9.2347e-07
9.2358e-07
9.23676e-07
9.2404e-07
9.23513e-07
9.23275e-07
9.22177e-07
9.22179e-07
9.22177e-07
9.23495e-07
9.2358e-07
9.23654e-07
9.24168e-07
9.24042e-07
9.23595e-07
9.23676e-07
9.23679e-07
9.23676e-07
9.23653e-07
9.23676e-07
9.24168e-07
9.24046e-07
9.24212e-07
9.24237e-07
9.24236e-07
9.24191e-07
9.16032e-07
9.15423e-07
9.15368e-07
9.15414e-07
9.16064e-07
9.16065e-07
9.16036e-07
9.15503e-07
9.15132e-07
9.14183e-07
9.14185e-07
9.14183e-07
9.15283e-07
9.15534e-07
9.16066e-07
9.15503e-07
9.15095e-07
9.14193e-07
9.14204e-07
9.14209e-07
9.14204e-07
9.14193e-07
9.15263e-07
9.15531e-07
9.16069e-07
9.16032e-07
9.15132e-07
9.14193e-07
9.14208e-07
9.14224e-07
9.14226e-07
9.14224e-07
9.14208e-07
9.14193e-07
9.15287e-07
9.15618e-07
9.16072e-07
9.15423e-07
9.14183e-07
9.14204e-07
9.14224e-07
9.14236e-07
9.14243e-07
9.14236e-07
9.14224e-07
9.14204e-07
9.14183e-07
9.15697e-07
9.16236e-07
9.15368e-07
9.14185e-07
9.14209e-07
9.14226e-07
9.14243e-07
9.14245e-07
9.14243e-07
9.14226e-07
9.14209e-07
9.14185e-07
9.15697e-07
9.16262e-07
9.15414e-07
9.14183e-07
9.14204e-07
9.14224e-07
9.14236e-07
9.14243e-07
9.14236e-07
9.14224e-07
9.14204e-07
9.14183e-07
9.15695e-07
9.16261e-07
9.16064e-07
9.15283e-07
9.14193e-07
9.14208e-07
9.14224e-07
9.14226e-07
9.14224e-07
9.14208e-07
9.14193e-07
9.15508e-07
9.15675e-07
9.16216e-07
9.16065e-07
9.15534e-07
9.15263e-07
9.14193e-07
9.14204e-07
9.14209e-07
9.14204e-07
9.14193e-07
9.15478e-07
9.15597e-07
9.15701e-07
9.16066e-07
9.15531e-07
9.15287e-07
9.14183e-07
9.14185e-07
9.14183e-07
9.15508e-07
9.15597e-07
9.15678e-07
9.16195e-07
9.16069e-07
9.15618e-07
9.15697e-07
9.15697e-07
9.15695e-07
9.15675e-07
9.15701e-07
9.16195e-07
9.16072e-07
9.16236e-07
9.16262e-07
9.16261e-07
9.16216e-07
9.08056e-07
9.07446e-07
9.0739e-07
9.07436e-07
9.08088e-07
9.08089e-07
9.0806e-07
9.07526e-07
9.07152e-07
9.06199e-07
9.062e-07
9.06199e-07
9.07303e-07
9.07556e-07
9.0809e-07
9.07526e-07
9.07113e-07
9.06204e-07
9.06211e-07
9.06213e-07
9.06211e-07
9.06204e-07
9.07281e-07
9.07553e-07
9.08093e-07
9.08056e-07
9.07152e-07
9.06204e-07
9.06213e-07
9.06221e-07
9.06223e-07
9.06221e-07
9.06213e-07
9.06204e-07
9.07306e-07
9.0764e-07
9.08095e-07
9.07446e-07
9.06199e-07
9.06211e-07
9.06222e-07
9.0623e-07
9.06234e-07
9.0623e-07
9.06222e-07
9.06211e-07
9.06199e-07
9.07719e-07
9.0826e-07
9.0739e-07
9.062e-07
9.06213e-07
9.06223e-07
9.06234e-07
9.06235e-07
9.06234e-07
9.06223e-07
9.06213e-07
9.062e-07
9.07717e-07
9.08285e-07
9.07436e-07
9.06199e-07
9.06211e-07
9.06221e-07
9.0623e-07
9.06234e-07
9.0623e-07
9.06221e-07
9.06211e-07
9.06199e-07
9.07716e-07
9.08284e-07
9.08088e-07
9.07302e-07
9.06204e-07
9.06213e-07
9.06222e-07
9.06223e-07
9.06222e-07
9.06213e-07
9.06204e-07
9.07526e-07
9.07697e-07
9.08239e-07
9.08089e-07
9.07556e-07
9.07281e-07
9.06204e-07
9.06211e-07
9.06213e-07
9.06211e-07
9.06204e-07
9.07495e-07
9.07618e-07
9.07725e-07
9.0809e-07
9.07553e-07
9.07306e-07
9.06199e-07
9.062e-07
9.06199e-07
9.07526e-07
9.07618e-07
9.07701e-07
9.08219e-07
9.08093e-07
9.0764e-07
9.07718e-07
9.07717e-07
9.07716e-07
9.07698e-07
9.07725e-07
9.08219e-07
9.08095e-07
9.08261e-07
9.08285e-07
9.08284e-07
9.0824e-07
9.00078e-07
8.99467e-07
8.99412e-07
8.99458e-07
9.0011e-07
9.00112e-07
9.00083e-07
8.99548e-07
8.99172e-07
8.98217e-07
8.98219e-07
8.98217e-07
8.99324e-07
8.99578e-07
9.00113e-07
8.99548e-07
8.99134e-07
8.9822e-07
8.98225e-07
8.98225e-07
8.98225e-07
8.9822e-07
8.99301e-07
8.99575e-07
9.00116e-07
9.00079e-07
8.99172e-07
8.9822e-07
8.98226e-07
8.9823e-07
8.98231e-07
8.9823e-07
8.98226e-07
8.9822e-07
8.99327e-07
8.99663e-07
9.00118e-07
8.99467e-07
8.98217e-07
8.98225e-07
8.9823e-07
8.98236e-07
8.98237e-07
8.98235e-07
8.9823e-07
8.98225e-07
8.98217e-07
8.9974e-07
9.00284e-07
8.99412e-07
8.98219e-07
8.98225e-07
8.98231e-07
8.98237e-07
8.98239e-07
8.98237e-07
8.98231e-07
8.98225e-07
8.98219e-07
8.99739e-07
9.00307e-07
8.99458e-07
8.98217e-07
8.98225e-07
8.9823e-07
8.98236e-07
8.98237e-07
8.98236e-07
8.9823e-07
8.98225e-07
8.98217e-07
8.99737e-07
9.00307e-07
9.0011e-07
8.99323e-07
8.9822e-07
8.98226e-07
8.9823e-07
8.98231e-07
8.9823e-07
8.98226e-07
8.9822e-07
8.99547e-07
8.9972e-07
9.00262e-07
9.00112e-07
8.99578e-07
8.99301e-07
8.9822e-07
8.98225e-07
8.98226e-07
8.98225e-07
8.9822e-07
8.99515e-07
8.9964e-07
8.99747e-07
9.00113e-07
8.99575e-07
8.99327e-07
8.98217e-07
8.98219e-07
8.98217e-07
8.99547e-07
8.9964e-07
8.99724e-07
9.00242e-07
9.00116e-07
8.99663e-07
8.9974e-07
8.99739e-07
8.99737e-07
8.9972e-07
8.99748e-07
9.00242e-07
9.00118e-07
9.00284e-07
9.00307e-07
9.00307e-07
9.00262e-07
8.92101e-07
8.91489e-07
8.91433e-07
8.9148e-07
8.92132e-07
8.92134e-07
8.92105e-07
8.91569e-07
8.91194e-07
8.90238e-07
8.90239e-07
8.90238e-07
8.91345e-07
8.916e-07
8.92136e-07
8.9157e-07
8.91154e-07
8.90239e-07
8.90243e-07
8.90242e-07
8.90243e-07
8.90239e-07
8.91322e-07
8.91597e-07
8.92138e-07
8.921e-07
8.91194e-07
8.90239e-07
8.90243e-07
8.90245e-07
8.90246e-07
8.90245e-07
8.90243e-07
8.90239e-07
8.91348e-07
8.91685e-07
8.92141e-07
8.91489e-07
8.90238e-07
8.90243e-07
8.90245e-07
8.90248e-07
8.90249e-07
8.90248e-07
8.90245e-07
8.90243e-07
8.90238e-07
8.91762e-07
8.92306e-07
8.91433e-07
8.90239e-07
8.90242e-07
8.90246e-07
8.90249e-07
8.9025e-07
8.90249e-07
8.90246e-07
8.90242e-07
8.90239e-07
8.9176e-07
8.9233e-07
8.9148e-07
8.90238e-07
8.90243e-07
8.90245e-07
8.90248e-07
8.90249e-07
8.90248e-07
8.90245e-07
8.90243e-07
8.90238e-07
8.91759e-07
8.92329e-07
8.92132e-07
8.91345e-07
8.90239e-07
8.90243e-07
8.90245e-07
8.90246e-07
8.90245e-07
8.90243e-07
8.90239e-07
8.91568e-07
8.91742e-07
8.92284e-07
8.92134e-07
8.916e-07
8.91322e-07
8.90239e-07
8.90243e-07
8.90243e-07
8.90243e-07
8.90239e-07
8.91536e-07
8.91662e-07
8.9177e-07
8.92136e-07
8.91597e-07
8.91348e-07
8.90238e-07
8.90239e-07
8.90238e-07
8.91568e-07
8.91662e-07
8.91746e-07
8.92265e-07
8.92138e-07
8.91685e-07
8.91762e-07
8.9176e-07
8.91759e-07
8.91742e-07
8.9177e-07
8.92265e-07
8.92141e-07
8.92306e-07
8.9233e-07
8.92329e-07
8.92284e-07
8.84123e-07
8.83511e-07
8.83455e-07
8.83502e-07
8.84154e-07
8.84156e-07
8.84127e-07
8.83591e-07
8.83215e-07
8.82259e-07
8.8226e-07
8.82259e-07
8.83367e-07
8.83622e-07
8.84158e-07
8.83591e-07
8.83176e-07
8.8226e-07
8.82262e-07
8.82262e-07
8.82262e-07
8.8226e-07
8.83344e-07
8.83619e-07
8.8416e-07
8.84122e-07
8.83215e-07
8.8226e-07
8.82262e-07
8.82263e-07
8.82264e-07
8.82263e-07
8.82262e-07
8.8226e-07
8.8337e-07
8.83707e-07
8.84163e-07
8.83511e-07
8.82259e-07
8.82262e-07
8.82263e-07
8.82265e-07
8.82265e-07
8.82265e-07
8.82263e-07
8.82262e-07
8.82259e-07
8.83784e-07
8.84328e-07
8.83455e-07
8.8226e-07
8.82262e-07
8.82264e-07
8.82265e-07
8.82266e-07
8.82265e-07
8.82264e-07
8.82262e-07
8.8226e-07
8.83782e-07
8.84352e-07
8.83502e-07
8.82259e-07
8.82262e-07
8.82263e-07
8.82265e-07
8.82265e-07
8.82265e-07
8.82263e-07
8.82262e-07
8.82259e-07
8.83781e-07
8.84351e-07
8.84154e-07
8.83367e-07
8.8226e-07
8.82262e-07
8.82263e-07
8.82264e-07
8.82263e-07
8.82262e-07
8.8226e-07
8.8359e-07
8.83764e-07
8.84306e-07
8.84156e-07
8.83622e-07
8.83344e-07
8.8226e-07
8.82262e-07
8.82262e-07
8.82262e-07
8.8226e-07
8.83557e-07
8.83684e-07
8.83792e-07
8.84158e-07
8.83619e-07
8.8337e-07
8.82259e-07
8.8226e-07
8.82259e-07
8.8359e-07
8.83684e-07
8.83768e-07
8.84287e-07
8.8416e-07
8.83707e-07
8.83784e-07
8.83782e-07
8.83781e-07
8.83764e-07
8.83792e-07
8.84287e-07
8.84163e-07
8.84328e-07
8.84352e-07
8.84351e-07
8.84306e-07
8.76144e-07
8.75533e-07
8.75477e-07
8.75523e-07
8.76176e-07
8.76178e-07
8.76149e-07
8.75613e-07
8.75237e-07
8.7428e-07
8.74281e-07
8.7428e-07
8.75388e-07
8.75643e-07
8.7618e-07
8.75613e-07
8.75197e-07
8.74281e-07
8.74283e-07
8.74282e-07
8.74283e-07
8.74281e-07
8.75365e-07
8.7564e-07
8.76182e-07
8.76144e-07
8.75237e-07
8.74281e-07
8.74283e-07
8.74283e-07
8.74283e-07
8.74283e-07
8.74283e-07
8.74281e-07
8.75391e-07
8.75729e-07
8.76184e-07
8.75532e-07
8.7428e-07
8.74283e-07
8.74283e-07
8.74284e-07
8.74284e-07
8.74284e-07
8.74283e-07
8.74283e-07
8.7428e-07
8.75806e-07
8.76349e-07
8.75477e-07
8.74281e-07
8.74282e-07
8.74283e-07
8.74284e-07
8.74285e-07
8.74284e-07
8.74283e-07
8.74282e-07
8.74281e-07
8.75804e-07
8.76373e-07
8.75523e-07
8.7428e-07
8.74283e-07
8.74283e-07
8.74284e-07
8.74284e-07
8.74284e-07
8.74283e-07
8.74283e-07
8.7428e-07
8.75802e-07
8.76373e-07
8.76176e-07
8.75388e-07
8.74281e-07
8.74283e-07
8.74283e-07
8.74283e-07
8.74283e-07
8.74283e-07
8.74281e-07
8.75611e-07
8.75785e-07
8.76328e-07
8.76178e-07
8.75643e-07
8.75365e-07
8.74281e-07
8.74283e-07
8.74282e-07
8.74283e-07
8.74281e-07
8.75579e-07
8.75705e-07
8.75814e-07
8.7618e-07
8.7564e-07
8.75391e-07
8.7428e-07
8.74281e-07
8.7428e-07
8.75611e-07
8.75705e-07
8.7579e-07
8.76308e-07
8.76182e-07
8.75729e-07
8.75806e-07
8.75804e-07
8.75802e-07
8.75786e-07
8.75814e-07
8.76309e-07
8.76184e-07
8.76349e-07
8.76373e-07
8.76373e-07
8.76328e-07
8.68166e-07
8.67555e-07
8.67499e-07
8.67545e-07
8.68198e-07
8.682e-07
8.68171e-07
8.67635e-07
8.67259e-07
8.66302e-07
8.66303e-07
8.66302e-07
8.6741e-07
8.67665e-07
8.68202e-07
8.67635e-07
8.67219e-07
8.66302e-07
8.66304e-07
8.66303e-07
8.66304e-07
8.66302e-07
8.67387e-07
8.67662e-07
8.68204e-07
8.68166e-07
8.67259e-07
8.66302e-07
8.66304e-07
8.66303e-07
8.66304e-07
8.66303e-07
8.66304e-07
8.66302e-07
8.67413e-07
8.6775e-07
8.68206e-07
8.67554e-07
8.66302e-07
8.66304e-07
8.66303e-07
8.66305e-07
8.66304e-07
8.66305e-07
8.66303e-07
8.66304e-07
8.66302e-07
8.67828e-07
8.68372e-07
8.67499e-07
8.66303e-07
8.66303e-07
8.66304e-07
8.66304e-07
8.66305e-07
8.66304e-07
8.66304e-07
8.66303e-07
8.66303e-07
8.67825e-07
8.68395e-07
8.67545e-07
8.66302e-07
8.66304e-07
8.66303e-07
8.66305e-07
8.66304e-07
8.66305e-07
8.66303e-07
8.66304e-07
8.66302e-07
8.67824e-07
8.68394e-07
8.68198e-07
8.6741e-07
8.66302e-07
8.66304e-07
8.66303e-07
8.66304e-07
8.66303e-07
8.66303e-07
8.66302e-07
8.67633e-07
8.67807e-07
8.6835e-07
8.682e-07
8.67665e-07
8.67387e-07
8.66302e-07
8.66304e-07
8.66303e-07
8.66304e-07
8.66302e-07
8.676e-07
8.67727e-07
8.67836e-07
8.68202e-07
8.67662e-07
8.67413e-07
8.66302e-07
8.66302e-07
8.66301e-07
8.67633e-07
8.67727e-07
8.67812e-07
8.6833e-07
8.68204e-07
8.6775e-07
8.67827e-07
8.67825e-07
8.67824e-07
8.67807e-07
8.67835e-07
8.6833e-07
8.68206e-07
8.68371e-07
8.68395e-07
8.68394e-07
8.6835e-07
8.60188e-07
8.59576e-07
8.59521e-07
8.59567e-07
8.6022e-07
8.60222e-07
8.60193e-07
8.59657e-07
8.5928e-07
8.58323e-07
8.58324e-07
8.58323e-07
8.59432e-07
8.59687e-07
8.60224e-07
8.59657e-07
8.59241e-07
8.58324e-07
8.58326e-07
8.58325e-07
8.58326e-07
8.58324e-07
8.59409e-07
8.59684e-07
8.60226e-07
8.60188e-07
8.5928e-07
8.58324e-07
8.58325e-07
8.58324e-07
8.58325e-07
8.58324e-07
8.58325e-07
8.58324e-07
8.59435e-07
8.59772e-07
8.60228e-07
8.59576e-07
8.58323e-07
8.58326e-07
8.58324e-07
8.58326e-07
8.58325e-07
8.58326e-07
8.58324e-07
8.58326e-07
8.58323e-07
8.59849e-07
8.60393e-07
8.59521e-07
8.58324e-07
8.58325e-07
8.58325e-07
8.58325e-07
8.58325e-07
8.58325e-07
8.58325e-07
8.58324e-07
8.58324e-07
8.59847e-07
8.60417e-07
8.59567e-07
8.58323e-07
8.58326e-07
8.58324e-07
8.58326e-07
8.58325e-07
8.58326e-07
8.58324e-07
8.58326e-07
8.58323e-07
8.59846e-07
8.60416e-07
8.6022e-07
8.59432e-07
8.58324e-07
8.58325e-07
8.58324e-07
8.58325e-07
8.58324e-07
8.58325e-07
8.58324e-07
8.59655e-07
8.59829e-07
8.60372e-07
8.60222e-07
8.59687e-07
8.59409e-07
8.58324e-07
8.58326e-07
8.58324e-07
8.58326e-07
8.58324e-07
8.59622e-07
8.59749e-07
8.59858e-07
8.60223e-07
8.59684e-07
8.59435e-07
8.58323e-07
8.58324e-07
8.58323e-07
8.59655e-07
8.59749e-07
8.59833e-07
8.60352e-07
8.60226e-07
8.59772e-07
8.59849e-07
8.59847e-07
8.59845e-07
8.59829e-07
8.59857e-07
8.60352e-07
8.60228e-07
8.60393e-07
8.60417e-07
8.60416e-07
8.60371e-07
8.5221e-07
8.51598e-07
8.51542e-07
8.51589e-07
8.52242e-07
8.52244e-07
8.52214e-07
8.51679e-07
8.51302e-07
8.50345e-07
8.50346e-07
8.50345e-07
8.51453e-07
8.51709e-07
8.52245e-07
8.51679e-07
8.51263e-07
8.50345e-07
8.50348e-07
8.50346e-07
8.50348e-07
8.50345e-07
8.5143e-07
8.51706e-07
8.52248e-07
8.5221e-07
8.51302e-07
8.50345e-07
8.50346e-07
8.50346e-07
8.50346e-07
8.50346e-07
8.50347e-07
8.50346e-07
8.51456e-07
8.51794e-07
8.5225e-07
8.51598e-07
8.50345e-07
8.50348e-07
8.50346e-07
8.50348e-07
8.50346e-07
8.50348e-07
8.50346e-07
8.50348e-07
8.50345e-07
8.51871e-07
8.52415e-07
8.51542e-07
8.50346e-07
8.50346e-07
8.50346e-07
8.50346e-07
8.50347e-07
8.50346e-07
8.50346e-07
8.50346e-07
8.50346e-07
8.51869e-07
8.52439e-07
8.51589e-07
8.50345e-07
8.50348e-07
8.50346e-07
8.50348e-07
8.50346e-07
8.50348e-07
8.50346e-07
8.50348e-07
8.50345e-07
8.51867e-07
8.52438e-07
8.52242e-07
8.51453e-07
8.50346e-07
8.50347e-07
8.50346e-07
8.50346e-07
8.50346e-07
8.50346e-07
8.50345e-07
8.51677e-07
8.51851e-07
8.52393e-07
8.52244e-07
8.51709e-07
8.5143e-07
8.50345e-07
8.50348e-07
8.50346e-07
8.50348e-07
8.50345e-07
8.51644e-07
8.51771e-07
8.51879e-07
8.52245e-07
8.51706e-07
8.51456e-07
8.50345e-07
8.50346e-07
8.50345e-07
8.51677e-07
8.51771e-07
8.51855e-07
8.52374e-07
8.52248e-07
8.51794e-07
8.51871e-07
8.51869e-07
8.51867e-07
8.51851e-07
8.51879e-07
8.52374e-07
8.5225e-07
8.52415e-07
8.52439e-07
8.52438e-07
8.52393e-07
8.44231e-07
8.4362e-07
8.43564e-07
8.4361e-07
8.44263e-07
8.44265e-07
8.44236e-07
8.437e-07
8.43324e-07
8.42367e-07
8.42367e-07
8.42367e-07
8.43475e-07
8.4373e-07
8.44267e-07
8.437e-07
8.43284e-07
8.42367e-07
8.42369e-07
8.42368e-07
8.42369e-07
8.42367e-07
8.43452e-07
8.43728e-07
8.4427e-07
8.44231e-07
8.43324e-07
8.42367e-07
8.42368e-07
8.42367e-07
8.42368e-07
8.42367e-07
8.42368e-07
8.42367e-07
8.43478e-07
8.43816e-07
8.44272e-07
8.4362e-07
8.42367e-07
8.42369e-07
8.42367e-07
8.42369e-07
8.42368e-07
8.42369e-07
8.42367e-07
8.42369e-07
8.42367e-07
8.43893e-07
8.44437e-07
8.43564e-07
8.42367e-07
8.42368e-07
8.42368e-07
8.42368e-07
8.42368e-07
8.42368e-07
8.42368e-07
8.42368e-07
8.42367e-07
8.43891e-07
8.4446e-07
8.4361e-07
8.42367e-07
8.42369e-07
8.42367e-07
8.42369e-07
8.42368e-07
8.42369e-07
8.42367e-07
8.42369e-07
8.42367e-07
8.43889e-07
8.4446e-07
8.44263e-07
8.43475e-07
8.42367e-07
8.42368e-07
8.42367e-07
8.42368e-07
8.42367e-07
8.42368e-07
8.42367e-07
8.43698e-07
8.43873e-07
8.44415e-07
8.44265e-07
8.4373e-07
8.43452e-07
8.42367e-07
8.42369e-07
8.42368e-07
8.42369e-07
8.42367e-07
8.43665e-07
8.43793e-07
8.43901e-07
8.44267e-07
8.43727e-07
8.43478e-07
8.42367e-07
8.42367e-07
8.42367e-07
8.43698e-07
8.43793e-07
8.43877e-07
8.44396e-07
8.44269e-07
8.43816e-07
8.43893e-07
8.43891e-07
8.43889e-07
8.43873e-07
8.43901e-07
8.44396e-07
8.44272e-07
8.44437e-07
8.4446e-07
8.4446e-07
8.44415e-07
8.36253e-07
8.35641e-07
8.35586e-07
8.35632e-07
8.36285e-07
8.36287e-07
8.36258e-07
8.35722e-07
8.35345e-07
8.34388e-07
8.34389e-07
8.34388e-07
8.35497e-07
8.35752e-07
8.36289e-07
8.35722e-07
8.35306e-07
8.34389e-07
8.34391e-07
8.34389e-07
8.34391e-07
8.34389e-07
8.35474e-07
8.35749e-07
8.36291e-07
8.36253e-07
8.35345e-07
8.34389e-07
8.3439e-07
8.34389e-07
8.34389e-07
8.34389e-07
8.3439e-07
8.34389e-07
8.355e-07
8.35837e-07
8.36293e-07
8.35641e-07
8.34388e-07
8.34391e-07
8.34389e-07
8.34391e-07
8.34389e-07
8.34391e-07
8.34389e-07
8.34391e-07
8.34388e-07
8.35915e-07
8.36459e-07
8.35586e-07
8.34389e-07
8.34389e-07
8.34389e-07
8.34389e-07
8.34389e-07
8.34389e-07
8.34389e-07
8.34389e-07
8.34389e-07
8.35912e-07
8.36482e-07
8.35632e-07
8.34388e-07
8.34391e-07
8.34389e-07
8.34391e-07
8.34389e-07
8.34391e-07
8.34389e-07
8.34391e-07
8.34388e-07
8.35911e-07
8.36481e-07
8.36285e-07
8.35497e-07
8.34389e-07
8.3439e-07
8.34389e-07
8.34389e-07
8.34389e-07
8.3439e-07
8.34389e-07
8.3572e-07
8.35894e-07
8.36437e-07
8.36287e-07
8.35752e-07
8.35474e-07
8.34389e-07
8.34391e-07
8.34389e-07
8.34391e-07
8.34389e-07
8.35687e-07
8.35814e-07
8.35923e-07
8.36289e-07
8.35749e-07
8.355e-07
8.34388e-07
8.34389e-07
8.34388e-07
8.3572e-07
8.35814e-07
8.35899e-07
8.36418e-07
8.36291e-07
8.35837e-07
8.35915e-07
8.35912e-07
8.35911e-07
8.35894e-07
8.35923e-07
8.36417e-07
8.36293e-07
8.36458e-07
8.36482e-07
8.36481e-07
8.36437e-07
8.28275e-07
8.27663e-07
8.27607e-07
8.27654e-07
8.28307e-07
8.28309e-07
8.28279e-07
8.27744e-07
8.27367e-07
8.2641e-07
8.26411e-07
8.2641e-07
8.27519e-07
8.27774e-07
8.2831e-07
8.27744e-07
8.27328e-07
8.2641e-07
8.26412e-07
8.26411e-07
8.26412e-07
8.26411e-07
8.27496e-07
8.27771e-07
8.28313e-07
8.28275e-07
8.27367e-07
8.2641e-07
8.26411e-07
8.26411e-07
8.26411e-07
8.26411e-07
8.26411e-07
8.26411e-07
8.27522e-07
8.27859e-07
8.28315e-07
8.27663e-07
8.2641e-07
8.26412e-07
8.26411e-07
8.26412e-07
8.26411e-07
8.26412e-07
8.26411e-07
8.26412e-07
8.2641e-07
8.27936e-07
8.2848e-07
8.27607e-07
8.26411e-07
8.26411e-07
8.26411e-07
8.26411e-07
8.26411e-07
8.26411e-07
8.26411e-07
8.26411e-07
8.26411e-07
8.27934e-07
8.28504e-07
8.27654e-07
8.2641e-07
8.26412e-07
8.26411e-07
8.26412e-07
8.26411e-07
8.26412e-07
8.26411e-07
8.26412e-07
8.2641e-07
8.27933e-07
8.28503e-07
8.28307e-07
8.27519e-07
8.26411e-07
8.26411e-07
8.26411e-07
8.26411e-07
8.26411e-07
8.26411e-07
8.2641e-07
8.27742e-07
8.27916e-07
8.28458e-07
8.28309e-07
8.27774e-07
8.27495e-07
8.2641e-07
8.26412e-07
8.26411e-07
8.26412e-07
8.2641e-07
8.27709e-07
8.27836e-07
8.27944e-07
8.2831e-07
8.27771e-07
8.27522e-07
8.2641e-07
8.26411e-07
8.2641e-07
8.27742e-07
8.27836e-07
8.27921e-07
8.28439e-07
8.28313e-07
8.27859e-07
8.27936e-07
8.27934e-07
8.27932e-07
8.27916e-07
8.27944e-07
8.28439e-07
8.28315e-07
8.2848e-07
8.28504e-07
8.28503e-07
8.28458e-07
8.20297e-07
8.19685e-07
8.19629e-07
8.19676e-07
8.20329e-07
8.2033e-07
8.20301e-07
8.19766e-07
8.19389e-07
8.18432e-07
8.18433e-07
8.18432e-07
8.1954e-07
8.19796e-07
8.20332e-07
8.19766e-07
8.1935e-07
8.18432e-07
8.18434e-07
8.18433e-07
8.18434e-07
8.18432e-07
8.19517e-07
8.19793e-07
8.20335e-07
8.20297e-07
8.19389e-07
8.18432e-07
8.18433e-07
8.18432e-07
8.18433e-07
8.18432e-07
8.18433e-07
8.18432e-07
8.19543e-07
8.19881e-07
8.20337e-07
8.19685e-07
8.18432e-07
8.18434e-07
8.18432e-07
8.18434e-07
8.18433e-07
8.18434e-07
8.18432e-07
8.18434e-07
8.18432e-07
8.19958e-07
8.20502e-07
8.19629e-07
8.18433e-07
8.18433e-07
8.18433e-07
8.18432e-07
8.18433e-07
8.18432e-07
8.18433e-07
8.18433e-07
8.18433e-07
8.19956e-07
8.20525e-07
8.19676e-07
8.18432e-07
8.18434e-07
8.18432e-07
8.18434e-07
8.18432e-07
8.18434e-07
8.18432e-07
8.18434e-07
8.18432e-07
8.19954e-07
8.20525e-07
8.20328e-07
8.1954e-07
8.18432e-07
8.18433e-07
8.18432e-07
8.18433e-07
8.18432e-07
8.18433e-07
8.18432e-07
8.19764e-07
8.19938e-07
8.2048e-07
8.2033e-07
8.19795e-07
8.19517e-07
8.18432e-07
8.18434e-07
8.18433e-07
8.18434e-07
8.18432e-07
8.19731e-07
8.19858e-07
8.19966e-07
8.20332e-07
8.19793e-07
8.19543e-07
8.18432e-07
8.18433e-07
8.18432e-07
8.19764e-07
8.19858e-07
8.19942e-07
8.20461e-07
8.20335e-07
8.19881e-07
8.19958e-07
8.19956e-07
8.19954e-07
8.19938e-07
8.19966e-07
8.20461e-07
8.20337e-07
8.20502e-07
8.20525e-07
8.20525e-07
8.2048e-07
8.12319e-07
8.11707e-07
8.11651e-07
8.11697e-07
8.1235e-07
8.12352e-07
8.12323e-07
8.11787e-07
8.11411e-07
8.10454e-07
8.10454e-07
8.10454e-07
8.11562e-07
8.11817e-07
8.12354e-07
8.11787e-07
8.11371e-07
8.10454e-07
8.10456e-07
8.10454e-07
8.10456e-07
8.10454e-07
8.11539e-07
8.11814e-07
8.12356e-07
8.12318e-07
8.11411e-07
8.10454e-07
8.10455e-07
8.10454e-07
8.10455e-07
8.10454e-07
8.10455e-07
8.10454e-07
8.11565e-07
8.11903e-07
8.12358e-07
8.11707e-07
8.10453e-07
8.10456e-07
8.10454e-07
8.10456e-07
8.10454e-07
8.10456e-07
8.10454e-07
8.10456e-07
8.10453e-07
8.1198e-07
8.12524e-07
8.11651e-07
8.10454e-07
8.10454e-07
8.10455e-07
8.10454e-07
8.10455e-07
8.10454e-07
8.10455e-07
8.10454e-07
8.10454e-07
8.11977e-07
8.12547e-07
8.11697e-07
8.10453e-07
8.10456e-07
8.10454e-07
8.10456e-07
8.10454e-07
8.10456e-07
8.10454e-07
8.10456e-07
8.10453e-07
8.11976e-07
8.12546e-07
8.1235e-07
8.11562e-07
8.10454e-07
8.10455e-07
8.10454e-07
8.10455e-07
8.10454e-07
8.10455e-07
8.10454e-07
8.11785e-07
8.11959e-07
8.12502e-07
8.12352e-07
8.11817e-07
8.11539e-07
8.10454e-07
8.10456e-07
8.10454e-07
8.10456e-07
8.10454e-07
8.11752e-07
8.11879e-07
8.11988e-07
8.12354e-07
8.11814e-07
8.11565e-07
8.10453e-07
8.10454e-07
8.10453e-07
8.11785e-07
8.11879e-07
8.11964e-07
8.12483e-07
8.12356e-07
8.11902e-07
8.1198e-07
8.11977e-07
8.11976e-07
8.11959e-07
8.11988e-07
8.12482e-07
8.12358e-07
8.12524e-07
8.12547e-07
8.12546e-07
8.12502e-07
8.0434e-07
8.03728e-07
8.03673e-07
8.03719e-07
8.04372e-07
8.04374e-07
8.04345e-07
8.03809e-07
8.03432e-07
8.02475e-07
8.02476e-07
8.02475e-07
8.03584e-07
8.03839e-07
8.04375e-07
8.03809e-07
8.03393e-07
8.02476e-07
8.02478e-07
8.02476e-07
8.02478e-07
8.02476e-07
8.03561e-07
8.03836e-07
8.04378e-07
8.0434e-07
8.03432e-07
8.02476e-07
8.02477e-07
8.02476e-07
8.02476e-07
8.02476e-07
8.02477e-07
8.02476e-07
8.03587e-07
8.03924e-07
8.0438e-07
8.03728e-07
8.02475e-07
8.02478e-07
8.02476e-07
8.02477e-07
8.02476e-07
8.02477e-07
8.02476e-07
8.02478e-07
8.02475e-07
8.04001e-07
8.04545e-07
8.03673e-07
8.02476e-07
8.02476e-07
8.02476e-07
8.02476e-07
8.02476e-07
8.02476e-07
8.02476e-07
8.02476e-07
8.02476e-07
8.03999e-07
8.04569e-07
8.03719e-07
8.02475e-07
8.02478e-07
8.02476e-07
8.02477e-07
8.02476e-07
8.02477e-07
8.02476e-07
8.02478e-07
8.02475e-07
8.03998e-07
8.04568e-07
8.04372e-07
8.03584e-07
8.02476e-07
8.02477e-07
8.02476e-07
8.02476e-07
8.02476e-07
8.02477e-07
8.02476e-07
8.03807e-07
8.03981e-07
8.04524e-07
8.04374e-07
8.03839e-07
8.03561e-07
8.02476e-07
8.02478e-07
8.02476e-07
8.02478e-07
8.02476e-07
8.03774e-07
8.03901e-07
8.0401e-07
8.04375e-07
8.03836e-07
8.03587e-07
8.02475e-07
8.02476e-07
8.02475e-07
8.03807e-07
8.03901e-07
8.03986e-07
8.04504e-07
8.04378e-07
8.03924e-07
8.04001e-07
8.03999e-07
8.03998e-07
8.03981e-07
8.04009e-07
8.04504e-07
8.0438e-07
8.04545e-07
8.04569e-07
8.04568e-07
8.04524e-07
7.96362e-07
7.9575e-07
7.95694e-07
7.95741e-07
7.96394e-07
7.96396e-07
7.96367e-07
7.95831e-07
7.95454e-07
7.94497e-07
7.94498e-07
7.94497e-07
7.95606e-07
7.95861e-07
7.96397e-07
7.95831e-07
7.95415e-07
7.94497e-07
7.94499e-07
7.94498e-07
7.94499e-07
7.94497e-07
7.95582e-07
7.95858e-07
7.964e-07
7.96362e-07
7.95454e-07
7.94497e-07
7.94498e-07
7.94497e-07
7.94498e-07
7.94497e-07
7.94498e-07
7.94497e-07
7.95608e-07
7.95946e-07
7.96402e-07
7.9575e-07
7.94497e-07
7.94499e-07
7.94497e-07
7.94499e-07
7.94498e-07
7.94499e-07
7.94497e-07
7.94499e-07
7.94497e-07
7.96023e-07
7.96567e-07
7.95694e-07
7.94498e-07
7.94498e-07
7.94498e-07
7.94498e-07
7.94498e-07
7.94498e-07
7.94498e-07
7.94498e-07
7.94498e-07
7.96021e-07
7.96591e-07
7.95741e-07
7.94497e-07
7.94499e-07
7.94497e-07
7.94499e-07
7.94498e-07
7.94499e-07
7.94497e-07
7.94499e-07
7.94497e-07
7.96019e-07
7.9659e-07
7.96394e-07
7.95605e-07
7.94497e-07
7.94498e-07
7.94497e-07
7.94498e-07
7.94497e-07
7.94498e-07
7.94497e-07
7.95829e-07
7.96003e-07
7.96545e-07
7.96395e-07
7.95861e-07
7.95582e-07
7.94497e-07
7.94499e-07
7.94498e-07
7.94499e-07
7.94497e-07
7.95796e-07
7.95923e-07
7.96031e-07
7.96397e-07
7.95858e-07
7.95608e-07
7.94497e-07
7.94498e-07
7.94497e-07
7.95829e-07
7.95923e-07
7.96008e-07
7.96526e-07
7.964e-07
7.95946e-07
7.96023e-07
7.96021e-07
7.96019e-07
7.96003e-07
7.96031e-07
7.96526e-07
7.96402e-07
7.96567e-07
7.96591e-07
7.9659e-07
7.96545e-07
7.88384e-07
7.87772e-07
7.87716e-07
7.87762e-07
7.88415e-07
7.88417e-07
7.88388e-07
7.87852e-07
7.87476e-07
7.86519e-07
7.8652e-07
7.86519e-07
7.87627e-07
7.87882e-07
7.88419e-07
7.87852e-07
7.87437e-07
7.86519e-07
7.86521e-07
7.8652e-07
7.86521e-07
7.86519e-07
7.87604e-07
7.8788e-07
7.88421e-07
7.88384e-07
7.87476e-07
7.86519e-07
7.8652e-07
7.86519e-07
7.8652e-07
7.86519e-07
7.8652e-07
7.86519e-07
7.8763e-07
7.87968e-07
7.88424e-07
7.87772e-07
7.86519e-07
7.86521e-07
7.86519e-07
7.86521e-07
7.86519e-07
7.86521e-07
7.86519e-07
7.86521e-07
7.86519e-07
7.88045e-07
7.88589e-07
7.87716e-07
7.8652e-07
7.8652e-07
7.8652e-07
7.86519e-07
7.8652e-07
7.86519e-07
7.8652e-07
7.8652e-07
7.8652e-07
7.88043e-07
7.88612e-07
7.87762e-07
7.86519e-07
7.86521e-07
7.86519e-07
7.86521e-07
7.86519e-07