/*--------------------------------*- C++ -*----------------------------------*\
| =========                 |                                                 |
| \\      /  F ield         | OpenFOAM: The Open Source CFD Toolbox           |
|  \\    /   O peration     | Version:  v2012                                 |
|   \\  /    A nd           | Website:  www.openfoam.com                      |
|    \\/     M anipulation  |                                                 |
\*---------------------------------------------------------------------------*/
FoamFile
{
    version     2.0;
    format      ascii;
    class       volScalarField;
    location    "85";
    object      p;
}
// * * * * * * * * * * * * * * * * * * * * * * * * * * * * * * * * * * * * * //

dimensions      [0 2 -2 0 0 0 0];


internalField   nonuniform List<scalar> 
292667
(
9.89885e-07
9.81143e-07
9.8052e-07
9.80574e-07
9.814e-07
9.90707e-07
9.81344e-07
9.79233e-07
9.77981e-07
9.77463e-07
9.77529e-07
9.78199e-07
9.79633e-07
9.81917e-07
9.81344e-07
9.78622e-07
9.76897e-07
9.75939e-07
9.75535e-07
9.75588e-07
9.7611e-07
9.77218e-07
9.79152e-07
9.82054e-07
9.89886e-07
9.79233e-07
9.76897e-07
9.75492e-07
9.74706e-07
9.74368e-07
9.74414e-07
9.7485e-07
9.75763e-07
9.77353e-07
9.79954e-07
9.89275e-07
9.81143e-07
9.77981e-07
9.75939e-07
9.74705e-07
9.74006e-07
9.73703e-07
9.73744e-07
9.74137e-07
9.7495e-07
9.7635e-07
9.78653e-07
9.84345e-07
9.8052e-07
9.77463e-07
9.75535e-07
9.74368e-07
9.73703e-07
9.73413e-07
9.73453e-07
9.73829e-07
9.74604e-07
9.75929e-07
9.78115e-07
9.82881e-07
9.80574e-07
9.77529e-07
9.75588e-07
9.74413e-07
9.73744e-07
9.73453e-07
9.73494e-07
9.73872e-07
9.74652e-07
9.75988e-07
9.78193e-07
9.8317e-07
9.814e-07
9.78199e-07
9.76109e-07
9.7485e-07
9.74137e-07
9.73829e-07
9.73872e-07
9.74273e-07
9.75106e-07
9.76541e-07
9.78907e-07
9.84622e-07
9.90707e-07
9.79632e-07
9.77218e-07
9.75763e-07
9.7495e-07
9.74603e-07
9.74652e-07
9.75106e-07
9.76057e-07
9.77719e-07
9.8041e-07
9.89104e-07
9.81917e-07
9.79152e-07
9.77352e-07
9.7635e-07
9.75929e-07
9.75988e-07
9.76541e-07
9.77719e-07
9.79757e-07
9.85287e-07
9.82054e-07
9.79954e-07
9.78652e-07
9.78115e-07
9.78192e-07
9.78907e-07
9.8041e-07
9.85286e-07
9.89275e-07
9.84344e-07
9.82881e-07
9.8317e-07
9.84622e-07
9.89104e-07
9.67143e-07
9.66596e-07
9.66556e-07
9.66615e-07
9.67197e-07
9.67046e-07
9.67158e-07
9.66734e-07
9.66429e-07
9.65406e-07
9.65389e-07
9.65406e-07
9.66589e-07
9.66802e-07
9.67225e-07
9.66734e-07
9.66404e-07
9.65437e-07
9.654e-07
9.65433e-07
9.654e-07
9.65437e-07
9.66576e-07
9.66795e-07
9.67216e-07
9.67143e-07
9.66429e-07
9.65437e-07
9.65381e-07
9.65399e-07
9.65378e-07
9.65399e-07
9.65381e-07
9.65438e-07
9.66581e-07
9.66833e-07
9.67223e-07
9.66596e-07
9.65406e-07
9.654e-07
9.654e-07
9.65358e-07
9.65362e-07
9.65358e-07
9.654e-07
9.654e-07
9.65406e-07
9.67e-07
9.6741e-07
9.66556e-07
9.65389e-07
9.65433e-07
9.65378e-07
9.65362e-07
9.6535e-07
9.65362e-07
9.65377e-07
9.65433e-07
9.65389e-07
9.67019e-07
9.67358e-07
9.66615e-07
9.65406e-07
9.654e-07
9.65399e-07
9.65358e-07
9.65362e-07
9.65358e-07
9.65399e-07
9.65399e-07
9.65405e-07
9.67011e-07
9.67376e-07
9.67197e-07
9.66589e-07
9.65437e-07
9.65381e-07
9.654e-07
9.65377e-07
9.65399e-07
9.6538e-07
9.65437e-07
9.66789e-07
9.66902e-07
9.67364e-07
9.67046e-07
9.66802e-07
9.66576e-07
9.65438e-07
9.654e-07
9.65433e-07
9.654e-07
9.65437e-07
9.66758e-07
9.6687e-07
9.66857e-07
9.67225e-07
9.66795e-07
9.66581e-07
9.65406e-07
9.65389e-07
9.65406e-07
9.66789e-07
9.6687e-07
9.66888e-07
9.67313e-07
9.67216e-07
9.66833e-07
9.66999e-07
9.67019e-07
9.67011e-07
9.66902e-07
9.66858e-07
9.67313e-07
9.67223e-07
9.6741e-07
9.67358e-07
9.67376e-07
9.67364e-07
9.5891e-07
9.58285e-07
9.58233e-07
9.58278e-07
9.58939e-07
9.5894e-07
9.58914e-07
9.58374e-07
9.58014e-07
9.57041e-07
9.57039e-07
9.57041e-07
9.58172e-07
9.58415e-07
9.58941e-07
9.58374e-07
9.57989e-07
9.57076e-07
9.57083e-07
9.57112e-07
9.57084e-07
9.57076e-07
9.58168e-07
9.58415e-07
9.58942e-07
9.5891e-07
9.58014e-07
9.57076e-07
9.57096e-07
9.57134e-07
9.5713e-07
9.57134e-07
9.57096e-07
9.57076e-07
9.58182e-07
9.58483e-07
9.5895e-07
9.58285e-07
9.57041e-07
9.57084e-07
9.57135e-07
9.5714e-07
9.57159e-07
9.5714e-07
9.57135e-07
9.57084e-07
9.57041e-07
9.58567e-07
9.59111e-07
9.58233e-07
9.57039e-07
9.57112e-07
9.5713e-07
9.57159e-07
9.5716e-07
9.57159e-07
9.5713e-07
9.57112e-07
9.57039e-07
9.58575e-07
9.59138e-07
9.58278e-07
9.57041e-07
9.57084e-07
9.57134e-07
9.5714e-07
9.57159e-07
9.5714e-07
9.57134e-07
9.57084e-07
9.57041e-07
9.58571e-07
9.59138e-07
9.58939e-07
9.58172e-07
9.57076e-07
9.57096e-07
9.57135e-07
9.5713e-07
9.57135e-07
9.57096e-07
9.57076e-07
9.58399e-07
9.58541e-07
9.59095e-07
9.5894e-07
9.58415e-07
9.58168e-07
9.57076e-07
9.57084e-07
9.57112e-07
9.57084e-07
9.57076e-07
9.58379e-07
9.58482e-07
9.58557e-07
9.58941e-07
9.58415e-07
9.58182e-07
9.57041e-07
9.57039e-07
9.57041e-07
9.58399e-07
9.58482e-07
9.5854e-07
9.59069e-07
9.58942e-07
9.58483e-07
9.58567e-07
9.58575e-07
9.58571e-07
9.58541e-07
9.58557e-07
9.59069e-07
9.5895e-07
9.59111e-07
9.59138e-07
9.59138e-07
9.59095e-07
9.50706e-07
9.50071e-07
9.50015e-07
9.50061e-07
9.50733e-07
9.50738e-07
9.50711e-07
9.50158e-07
9.49779e-07
9.48789e-07
9.4879e-07
9.48789e-07
9.49931e-07
9.50188e-07
9.50737e-07
9.50158e-07
9.49747e-07
9.48808e-07
9.48823e-07
9.48836e-07
9.48823e-07
9.48808e-07
9.49916e-07
9.50186e-07
9.50739e-07
9.50706e-07
9.49779e-07
9.48808e-07
9.48832e-07
9.48858e-07
9.48859e-07
9.48858e-07
9.48832e-07
9.48808e-07
9.49937e-07
9.50267e-07
9.50747e-07
9.50071e-07
9.48789e-07
9.48823e-07
9.48859e-07
9.48872e-07
9.48886e-07
9.48872e-07
9.48859e-07
9.48823e-07
9.48789e-07
9.50343e-07
9.50908e-07
9.50015e-07
9.4879e-07
9.48836e-07
9.48859e-07
9.48886e-07
9.48888e-07
9.48886e-07
9.48859e-07
9.48836e-07
9.4879e-07
9.50343e-07
9.50932e-07
9.50061e-07
9.48789e-07
9.48823e-07
9.48859e-07
9.48873e-07
9.48886e-07
9.48873e-07
9.48858e-07
9.48823e-07
9.48789e-07
9.50342e-07
9.50931e-07
9.50733e-07
9.49931e-07
9.48808e-07
9.48832e-07
9.48859e-07
9.48859e-07
9.48859e-07
9.48831e-07
9.48808e-07
9.50156e-07
9.50322e-07
9.50891e-07
9.50738e-07
9.50188e-07
9.49916e-07
9.48808e-07
9.48823e-07
9.48836e-07
9.48823e-07
9.48808e-07
9.5013e-07
9.5025e-07
9.5035e-07
9.50737e-07
9.50186e-07
9.49937e-07
9.48789e-07
9.4879e-07
9.48789e-07
9.50156e-07
9.5025e-07
9.50328e-07
9.50868e-07
9.50739e-07
9.50267e-07
9.50343e-07
9.50343e-07
9.50342e-07
9.50323e-07
9.5035e-07
9.50868e-07
9.50747e-07
9.50908e-07
9.50932e-07
9.50931e-07
9.50891e-07
9.42502e-07
9.41863e-07
9.41806e-07
9.41853e-07
9.42529e-07
9.42534e-07
9.42508e-07
9.4195e-07
9.41564e-07
9.40565e-07
9.40566e-07
9.40565e-07
9.41715e-07
9.41977e-07
9.42533e-07
9.4195e-07
9.41528e-07
9.40575e-07
9.40586e-07
9.40592e-07
9.40586e-07
9.40575e-07
9.41695e-07
9.41975e-07
9.42536e-07
9.42501e-07
9.41564e-07
9.40575e-07
9.40591e-07
9.40606e-07
9.40608e-07
9.40606e-07
9.40591e-07
9.40575e-07
9.41719e-07
9.4206e-07
9.42543e-07
9.41863e-07
9.40565e-07
9.40586e-07
9.40607e-07
9.40619e-07
9.40626e-07
9.40619e-07
9.40607e-07
9.40586e-07
9.40565e-07
9.42133e-07
9.42704e-07
9.41806e-07
9.40567e-07
9.40592e-07
9.40608e-07
9.40626e-07
9.40629e-07
9.40627e-07
9.40608e-07
9.40592e-07
9.40566e-07
9.42131e-07
9.42727e-07
9.41853e-07
9.40565e-07
9.40586e-07
9.40607e-07
9.40619e-07
9.40626e-07
9.40619e-07
9.40606e-07
9.40586e-07
9.40565e-07
9.42131e-07
9.42727e-07
9.42529e-07
9.41715e-07
9.40575e-07
9.40591e-07
9.40607e-07
9.40608e-07
9.40607e-07
9.40591e-07
9.40575e-07
9.41938e-07
9.42115e-07
9.42686e-07
9.42534e-07
9.41977e-07
9.41695e-07
9.40575e-07
9.40586e-07
9.40592e-07
9.40586e-07
9.40575e-07
9.41909e-07
9.42038e-07
9.42146e-07
9.42533e-07
9.41975e-07
9.41719e-07
9.40565e-07
9.40566e-07
9.40565e-07
9.41938e-07
9.42038e-07
9.42122e-07
9.42666e-07
9.42536e-07
9.4206e-07
9.42133e-07
9.42131e-07
9.42131e-07
9.42115e-07
9.42146e-07
9.42665e-07
9.42543e-07
9.42704e-07
9.42727e-07
9.42727e-07
9.42686e-07
9.34295e-07
9.33656e-07
9.33598e-07
9.33645e-07
9.34323e-07
9.34329e-07
9.34302e-07
9.33742e-07
9.33354e-07
9.3235e-07
9.32352e-07
9.3235e-07
9.33505e-07
9.33769e-07
9.34328e-07
9.33742e-07
9.33316e-07
9.32356e-07
9.32363e-07
9.32365e-07
9.32362e-07
9.32355e-07
9.33483e-07
9.33766e-07
9.34331e-07
9.34295e-07
9.33354e-07
9.32356e-07
9.32365e-07
9.32374e-07
9.32375e-07
9.32374e-07
9.32365e-07
9.32356e-07
9.33508e-07
9.33853e-07
9.34337e-07
9.33656e-07
9.3235e-07
9.32363e-07
9.32374e-07
9.32382e-07
9.32386e-07
9.32382e-07
9.32374e-07
9.32363e-07
9.3235e-07
9.33925e-07
9.34498e-07
9.33598e-07
9.32352e-07
9.32365e-07
9.32375e-07
9.32386e-07
9.32388e-07
9.32386e-07
9.32375e-07
9.32365e-07
9.32352e-07
9.33922e-07
9.34521e-07
9.33645e-07
9.3235e-07
9.32363e-07
9.32374e-07
9.32382e-07
9.32386e-07
9.32382e-07
9.32374e-07
9.32363e-07
9.3235e-07
9.33922e-07
9.3452e-07
9.34323e-07
9.33505e-07
9.32355e-07
9.32365e-07
9.32374e-07
9.32375e-07
9.32374e-07
9.32365e-07
9.32355e-07
9.33727e-07
9.33908e-07
9.34481e-07
9.34329e-07
9.33769e-07
9.33483e-07
9.32356e-07
9.32363e-07
9.32365e-07
9.32363e-07
9.32356e-07
9.33696e-07
9.33829e-07
9.3394e-07
9.34328e-07
9.33766e-07
9.33508e-07
9.3235e-07
9.32352e-07
9.3235e-07
9.33727e-07
9.33829e-07
9.33916e-07
9.3446e-07
9.34331e-07
9.33853e-07
9.33925e-07
9.33922e-07
9.33922e-07
9.33908e-07
9.3394e-07
9.3446e-07
9.34337e-07
9.34498e-07
9.34521e-07
9.3452e-07
9.34481e-07
9.26088e-07
9.25448e-07
9.2539e-07
9.25437e-07
9.26115e-07
9.26122e-07
9.26096e-07
9.25535e-07
9.25145e-07
9.24139e-07
9.24141e-07
9.24139e-07
9.25296e-07
9.25561e-07
9.26121e-07
9.25535e-07
9.25107e-07
9.24142e-07
9.24147e-07
9.24148e-07
9.24147e-07
9.24142e-07
9.25274e-07
9.25559e-07
9.26124e-07
9.26088e-07
9.25145e-07
9.24142e-07
9.24148e-07
9.24152e-07
9.24154e-07
9.24152e-07
9.24148e-07
9.24142e-07
9.25299e-07
9.25646e-07
9.2613e-07
9.25448e-07
9.24139e-07
9.24147e-07
9.24153e-07
9.24158e-07
9.2416e-07
9.24158e-07
9.24153e-07
9.24147e-07
9.24139e-07
9.25718e-07
9.26291e-07
9.2539e-07
9.24141e-07
9.24148e-07
9.24154e-07
9.2416e-07
9.24161e-07
9.2416e-07
9.24154e-07
9.24148e-07
9.24141e-07
9.25714e-07
9.26314e-07
9.25437e-07
9.24139e-07
9.24147e-07
9.24153e-07
9.24158e-07
9.2416e-07
9.24158e-07
9.24153e-07
9.24147e-07
9.24139e-07
9.25714e-07
9.26313e-07
9.26115e-07
9.25296e-07
9.24142e-07
9.24148e-07
9.24153e-07
9.24154e-07
9.24153e-07
9.24148e-07
9.24142e-07
9.25519e-07
9.25701e-07
9.26274e-07
9.26122e-07
9.25561e-07
9.25274e-07
9.24142e-07
9.24147e-07
9.24148e-07
9.24147e-07
9.24142e-07
9.25486e-07
9.25621e-07
9.25733e-07
9.26121e-07
9.25559e-07
9.25299e-07
9.2414e-07
9.24141e-07
9.2414e-07
9.25518e-07
9.25621e-07
9.25709e-07
9.26253e-07
9.26124e-07
9.25646e-07
9.25718e-07
9.25714e-07
9.25714e-07
9.25701e-07
9.25733e-07
9.26254e-07
9.2613e-07
9.26291e-07
9.26314e-07
9.26313e-07
9.26273e-07
9.17881e-07
9.1724e-07
9.17182e-07
9.1723e-07
9.17908e-07
9.17915e-07
9.17888e-07
9.17327e-07
9.16937e-07
9.1593e-07
9.15931e-07
9.1593e-07
9.17088e-07
9.17354e-07
9.17914e-07
9.17327e-07
9.16898e-07
9.15932e-07
9.15935e-07
9.15935e-07
9.15935e-07
9.15932e-07
9.17065e-07
9.17351e-07
9.17917e-07
9.17881e-07
9.16937e-07
9.15932e-07
9.15935e-07
9.15937e-07
9.15939e-07
9.15937e-07
9.15935e-07
9.15932e-07
9.17091e-07
9.17439e-07
9.17923e-07
9.1724e-07
9.1593e-07
9.15935e-07
9.15937e-07
9.15941e-07
9.15942e-07
9.15941e-07
9.15937e-07
9.15935e-07
9.1593e-07
9.1751e-07
9.18084e-07
9.17182e-07
9.15931e-07
9.15935e-07
9.15939e-07
9.15942e-07
9.15943e-07
9.15942e-07
9.15939e-07
9.15935e-07
9.15931e-07
9.17506e-07
9.18106e-07
9.17229e-07
9.1593e-07
9.15935e-07
9.15937e-07
9.15941e-07
9.15942e-07
9.15941e-07
9.15937e-07
9.15935e-07
9.1593e-07
9.17506e-07
9.18106e-07
9.17908e-07
9.17088e-07
9.15932e-07
9.15935e-07
9.15937e-07
9.15939e-07
9.15937e-07
9.15936e-07
9.15932e-07
9.1731e-07
9.17493e-07
9.18066e-07
9.17915e-07
9.17354e-07
9.17065e-07
9.15932e-07
9.15935e-07
9.15935e-07
9.15935e-07
9.15932e-07
9.17278e-07
9.17414e-07
9.17526e-07
9.17914e-07
9.17351e-07
9.17091e-07
9.1593e-07
9.15931e-07
9.1593e-07
9.1731e-07
9.17414e-07
9.17502e-07
9.18047e-07
9.17917e-07
9.17439e-07
9.1751e-07
9.17506e-07
9.17506e-07
9.17493e-07
9.17526e-07
9.18046e-07
9.17923e-07
9.18084e-07
9.18106e-07
9.18106e-07
9.18066e-07
9.09674e-07
9.09033e-07
9.08975e-07
9.09022e-07
9.097e-07
9.09707e-07
9.09681e-07
9.09119e-07
9.08729e-07
9.07722e-07
9.07722e-07
9.07722e-07
9.0888e-07
9.09146e-07
9.09706e-07
9.09119e-07
9.0869e-07
9.07723e-07
9.07725e-07
9.07725e-07
9.07725e-07
9.07723e-07
9.08857e-07
9.09143e-07
9.09709e-07
9.09673e-07
9.08729e-07
9.07723e-07
9.07725e-07
9.07726e-07
9.07727e-07
9.07726e-07
9.07725e-07
9.07723e-07
9.08883e-07
9.09231e-07
9.09715e-07
9.09033e-07
9.07722e-07
9.07725e-07
9.07726e-07
9.07728e-07
9.07728e-07
9.07728e-07
9.07726e-07
9.07725e-07
9.07722e-07
9.09302e-07
9.09876e-07
9.08975e-07
9.07722e-07
9.07725e-07
9.07727e-07
9.07728e-07
9.07729e-07
9.07728e-07
9.07727e-07
9.07725e-07
9.07722e-07
9.09298e-07
9.09899e-07
9.09022e-07
9.07722e-07
9.07725e-07
9.07726e-07
9.07728e-07
9.07728e-07
9.07728e-07
9.07726e-07
9.07725e-07
9.07722e-07
9.09298e-07
9.09898e-07
9.097e-07
9.0888e-07
9.07723e-07
9.07725e-07
9.07726e-07
9.07727e-07
9.07726e-07
9.07725e-07
9.07723e-07
9.09102e-07
9.09286e-07
9.09859e-07
9.09707e-07
9.09146e-07
9.08857e-07
9.07723e-07
9.07725e-07
9.07725e-07
9.07725e-07
9.07723e-07
9.0907e-07
9.09206e-07
9.09319e-07
9.09706e-07
9.09143e-07
9.08883e-07
9.07722e-07
9.07722e-07
9.07722e-07
9.09102e-07
9.09206e-07
9.09294e-07
9.09839e-07
9.09709e-07
9.09231e-07
9.09302e-07
9.09298e-07
9.09298e-07
9.09286e-07
9.09318e-07
9.09839e-07
9.09715e-07
9.09876e-07
9.09899e-07
9.09898e-07
9.09859e-07
9.01466e-07
9.00825e-07
9.00767e-07
9.00814e-07
9.01493e-07
9.01499e-07
9.01473e-07
9.00911e-07
9.00521e-07
8.99513e-07
8.99514e-07
8.99513e-07
9.00672e-07
9.00938e-07
9.01499e-07
9.00911e-07
9.00482e-07
8.99514e-07
8.99516e-07
8.99515e-07
8.99516e-07
8.99514e-07
9.00649e-07
9.00935e-07
9.01501e-07
9.01466e-07
9.00521e-07
8.99514e-07
8.99516e-07
8.99516e-07
8.99517e-07
8.99516e-07
8.99516e-07
8.99514e-07
9.00675e-07
9.01023e-07
9.01508e-07
9.00824e-07
8.99513e-07
8.99516e-07
8.99516e-07
8.99518e-07
8.99517e-07
8.99518e-07
8.99516e-07
8.99516e-07
8.99513e-07
9.01094e-07
9.01668e-07
9.00767e-07
8.99514e-07
8.99515e-07
8.99517e-07
8.99517e-07
8.99518e-07
8.99517e-07
8.99517e-07
8.99515e-07
8.99514e-07
9.0109e-07
9.01691e-07
9.00814e-07
8.99513e-07
8.99516e-07
8.99516e-07
8.99518e-07
8.99517e-07
8.99518e-07
8.99516e-07
8.99516e-07
8.99513e-07
9.0109e-07
9.0169e-07
9.01493e-07
9.00672e-07
8.99514e-07
8.99516e-07
8.99516e-07
8.99517e-07
8.99516e-07
8.99516e-07
8.99514e-07
9.00894e-07
9.01078e-07
9.01651e-07
9.01499e-07
9.00938e-07
9.00649e-07
8.99514e-07
8.99516e-07
8.99515e-07
8.99516e-07
8.99514e-07
9.00861e-07
9.00998e-07
9.0111e-07
9.01499e-07
9.00935e-07
9.00675e-07
8.99513e-07
8.99514e-07
8.99513e-07
9.00894e-07
9.00998e-07
9.01086e-07
9.01631e-07
9.01501e-07
9.01023e-07
9.01094e-07
9.0109e-07
9.0109e-07
9.01078e-07
9.01111e-07
9.01631e-07
9.01508e-07
9.01668e-07
9.01691e-07
9.0169e-07
9.01651e-07
8.93258e-07
8.92617e-07
8.92559e-07
8.92606e-07
8.93285e-07
8.93292e-07
8.93265e-07
8.92704e-07
8.92313e-07
8.91305e-07
8.91306e-07
8.91305e-07
8.92464e-07
8.9273e-07
8.93291e-07
8.92704e-07
8.92274e-07
8.91306e-07
8.91308e-07
8.91307e-07
8.91308e-07
8.91306e-07
8.92441e-07
8.92727e-07
8.93294e-07
8.93258e-07
8.92313e-07
8.91306e-07
8.91307e-07
8.91307e-07
8.91307e-07
8.91307e-07
8.91307e-07
8.91306e-07
8.92467e-07
8.92815e-07
8.933e-07
8.92617e-07
8.91305e-07
8.91308e-07
8.91307e-07
8.91309e-07
8.91307e-07
8.91309e-07
8.91307e-07
8.91308e-07
8.91305e-07
8.92886e-07
8.9346e-07
8.92559e-07
8.91306e-07
8.91307e-07
8.91307e-07
8.91307e-07
8.91308e-07
8.91307e-07
8.91307e-07
8.91307e-07
8.91306e-07
8.92882e-07
8.93483e-07
8.92606e-07
8.91305e-07
8.91308e-07
8.91307e-07
8.91309e-07
8.91307e-07
8.91309e-07
8.91307e-07
8.91308e-07
8.91305e-07
8.92882e-07
8.93482e-07
8.93285e-07
8.92464e-07
8.91306e-07
8.91307e-07
8.91307e-07
8.91307e-07
8.91307e-07
8.91307e-07
8.91306e-07
8.92686e-07
8.9287e-07
8.93443e-07
8.93292e-07
8.9273e-07
8.92441e-07
8.91306e-07
8.91308e-07
8.91307e-07
8.91308e-07
8.91306e-07
8.92653e-07
8.9279e-07
8.92903e-07
8.93291e-07
8.92727e-07
8.92467e-07
8.91305e-07
8.91306e-07
8.91305e-07
8.92686e-07
8.9279e-07
8.92878e-07
8.93423e-07
8.93294e-07
8.92815e-07
8.92886e-07
8.92882e-07
8.92882e-07
8.9287e-07
8.92903e-07
8.93423e-07
8.933e-07
8.9346e-07
8.93483e-07
8.93482e-07
8.93443e-07
8.8505e-07
8.84409e-07
8.84351e-07
8.84398e-07
8.85077e-07
8.85084e-07
8.85058e-07
8.84496e-07
8.84105e-07
8.83097e-07
8.83098e-07
8.83097e-07
8.84256e-07
8.84523e-07
8.85083e-07
8.84496e-07
8.84066e-07
8.83098e-07
8.831e-07
8.83099e-07
8.831e-07
8.83098e-07
8.84233e-07
8.8452e-07
8.85086e-07
8.8505e-07
8.84105e-07
8.83098e-07
8.83099e-07
8.83098e-07
8.83099e-07
8.83098e-07
8.83099e-07
8.83098e-07
8.84259e-07
8.84607e-07
8.85092e-07
8.84409e-07
8.83097e-07
8.831e-07
8.83098e-07
8.831e-07
8.83099e-07
8.831e-07
8.83098e-07
8.831e-07
8.83097e-07
8.84679e-07
8.85253e-07
8.84351e-07
8.83098e-07
8.83099e-07
8.83099e-07
8.83099e-07
8.83099e-07
8.83099e-07
8.83099e-07
8.83098e-07
8.83098e-07
8.84674e-07
8.85275e-07
8.84398e-07
8.83097e-07
8.831e-07
8.83098e-07
8.831e-07
8.83099e-07
8.831e-07
8.83098e-07
8.831e-07
8.83097e-07
8.84674e-07
8.85275e-07
8.85077e-07
8.84256e-07
8.83098e-07
8.83099e-07
8.83098e-07
8.83099e-07
8.83098e-07
8.83099e-07
8.83098e-07
8.84478e-07
8.84662e-07
8.85235e-07
8.85084e-07
8.84523e-07
8.84233e-07
8.83098e-07
8.831e-07
8.83099e-07
8.831e-07
8.83098e-07
8.84446e-07
8.84582e-07
8.84695e-07
8.85083e-07
8.8452e-07
8.84259e-07
8.83097e-07
8.83098e-07
8.83097e-07
8.84478e-07
8.84582e-07
8.84671e-07
8.85216e-07
8.85086e-07
8.84607e-07
8.84679e-07
8.84674e-07
8.84674e-07
8.84662e-07
8.84695e-07
8.85215e-07
8.85092e-07
8.85253e-07
8.85275e-07
8.85275e-07
8.85235e-07
8.76842e-07
8.76201e-07
8.76143e-07
8.7619e-07
8.76869e-07
8.76876e-07
8.7685e-07
8.76288e-07
8.75897e-07
8.74889e-07
8.7489e-07
8.74889e-07
8.76048e-07
8.76315e-07
8.76875e-07
8.76288e-07
8.75858e-07
8.7489e-07
8.74892e-07
8.7489e-07
8.74892e-07
8.7489e-07
8.76025e-07
8.76312e-07
8.76878e-07
8.76842e-07
8.75897e-07
8.7489e-07
8.74891e-07
8.7489e-07
8.74891e-07
8.7489e-07
8.74891e-07
8.7489e-07
8.76051e-07
8.764e-07
8.76884e-07
8.76201e-07
8.74889e-07
8.74892e-07
8.7489e-07
8.74892e-07
8.74891e-07
8.74892e-07
8.7489e-07
8.74892e-07
8.74889e-07
8.76471e-07
8.77045e-07
8.76143e-07
8.7489e-07
8.7489e-07
8.74891e-07
8.7489e-07
8.74891e-07
8.7489e-07
8.74891e-07
8.7489e-07
8.7489e-07
8.76467e-07
8.77067e-07
8.7619e-07
8.74889e-07
8.74892e-07
8.7489e-07
8.74892e-07
8.7489e-07
8.74892e-07
8.7489e-07
8.74892e-07
8.74889e-07
8.76466e-07
8.77067e-07
8.76869e-07
8.76048e-07
8.7489e-07
8.74891e-07
8.7489e-07
8.74891e-07
8.7489e-07
8.74891e-07
8.7489e-07
8.7627e-07
8.76454e-07
8.77027e-07
8.76876e-07
8.76315e-07
8.76025e-07
8.7489e-07
8.74892e-07
8.7489e-07
8.74892e-07
8.7489e-07
8.76237e-07
8.76374e-07
8.76487e-07
8.76875e-07
8.76312e-07
8.76051e-07
8.74889e-07
8.7489e-07
8.74889e-07
8.7627e-07
8.76374e-07
8.76463e-07
8.77008e-07
8.76878e-07
8.764e-07
8.76471e-07
8.76467e-07
8.76466e-07
8.76454e-07
8.76487e-07
8.77008e-07
8.76884e-07
8.77045e-07
8.77067e-07
8.77067e-07
8.77027e-07
8.68634e-07
8.67993e-07
8.67935e-07
8.67982e-07
8.68661e-07
8.68668e-07
8.68642e-07
8.6808e-07
8.67689e-07
8.66681e-07
8.66682e-07
8.66681e-07
8.67841e-07
8.68107e-07
8.68667e-07
8.6808e-07
8.6765e-07
8.66682e-07
8.66684e-07
8.66682e-07
8.66684e-07
8.66682e-07
8.67817e-07
8.68104e-07
8.6867e-07
8.68634e-07
8.67689e-07
8.66682e-07
8.66683e-07
8.66682e-07
8.66683e-07
8.66682e-07
8.66683e-07
8.66682e-07
8.67843e-07
8.68192e-07
8.68676e-07
8.67993e-07
8.66681e-07
8.66684e-07
8.66682e-07
8.66684e-07
8.66682e-07
8.66684e-07
8.66682e-07
8.66684e-07
8.66681e-07
8.68263e-07
8.68837e-07
8.67935e-07
8.66682e-07
8.66682e-07
8.66683e-07
8.66682e-07
8.66683e-07
8.66682e-07
8.66683e-07
8.66682e-07
8.66682e-07
8.68259e-07
8.68859e-07
8.67982e-07
8.66681e-07
8.66684e-07
8.66682e-07
8.66684e-07
8.66682e-07
8.66684e-07
8.66682e-07
8.66684e-07
8.66681e-07
8.68259e-07
8.68859e-07
8.68661e-07
8.67841e-07
8.66682e-07
8.66683e-07
8.66682e-07
8.66683e-07
8.66682e-07
8.66683e-07
8.66682e-07
8.68063e-07
8.68246e-07
8.68819e-07
8.68668e-07
8.68107e-07
8.67817e-07
8.66682e-07
8.66684e-07
8.66682e-07
8.66684e-07
8.66682e-07
8.6803e-07
8.68166e-07
8.68279e-07
8.68667e-07
8.68104e-07
8.67843e-07
8.66681e-07
8.66682e-07
8.66681e-07
8.68063e-07
8.68166e-07
8.68255e-07
8.688e-07
8.6867e-07
8.68192e-07
8.68263e-07
8.68259e-07
8.68258e-07
8.68246e-07
8.68279e-07
8.688e-07
8.68676e-07
8.68837e-07
8.68859e-07
8.68859e-07
8.68819e-07
8.60426e-07
8.59785e-07
8.59727e-07
8.59774e-07
8.60453e-07
8.6046e-07
8.60434e-07
8.59872e-07
8.59481e-07
8.58473e-07
8.58474e-07
8.58473e-07
8.59633e-07
8.59899e-07
8.6046e-07
8.59872e-07
8.59442e-07
8.58474e-07
8.58476e-07
8.58474e-07
8.58476e-07
8.58474e-07
8.5961e-07
8.59896e-07
8.60462e-07
8.60426e-07
8.59481e-07
8.58474e-07
8.58475e-07
8.58474e-07
8.58475e-07
8.58474e-07
8.58475e-07
8.58474e-07
8.59635e-07
8.59984e-07
8.60468e-07
8.59785e-07
8.58473e-07
8.58476e-07
8.58474e-07
8.58476e-07
8.58474e-07
8.58476e-07
8.58474e-07
8.58476e-07
8.58474e-07
8.60055e-07
8.60629e-07
8.59727e-07
8.58474e-07
8.58474e-07
8.58475e-07
8.58474e-07
8.58475e-07
8.58474e-07
8.58475e-07
8.58474e-07
8.58474e-07
8.60051e-07
8.60652e-07
8.59774e-07
8.58473e-07
8.58476e-07
8.58474e-07
8.58476e-07
8.58474e-07
8.58476e-07
8.58474e-07
8.58476e-07
8.58474e-07
8.60051e-07
8.60651e-07
8.60453e-07
8.59633e-07
8.58474e-07
8.58475e-07
8.58474e-07
8.58475e-07
8.58474e-07
8.58475e-07
8.58474e-07
8.59855e-07
8.60038e-07
8.60612e-07
8.6046e-07
8.59899e-07
8.5961e-07
8.58474e-07
8.58476e-07
8.58474e-07
8.58476e-07
8.58474e-07
8.59822e-07
8.59958e-07
8.60071e-07
8.6046e-07
8.59896e-07
8.59635e-07
8.58474e-07
8.58474e-07
8.58474e-07
8.59855e-07
8.59958e-07
8.60047e-07
8.60592e-07
8.60462e-07
8.59984e-07
8.60055e-07
8.60051e-07
8.60051e-07
8.60038e-07
8.60071e-07
8.60592e-07
8.60468e-07
8.60629e-07
8.60652e-07
8.60651e-07
8.60612e-07
8.52219e-07
8.51577e-07
8.5152e-07
8.51567e-07
8.52245e-07
8.52252e-07
8.52226e-07
8.51664e-07
8.51273e-07
8.50266e-07
8.50266e-07
8.50266e-07
8.51425e-07
8.51691e-07
8.52252e-07
8.51664e-07
8.51235e-07
8.50266e-07
8.50268e-07
8.50267e-07
8.50268e-07
8.50266e-07
8.51402e-07
8.51688e-07
8.52254e-07
8.52219e-07
8.51273e-07
8.50266e-07
8.50267e-07
8.50266e-07
8.50267e-07
8.50266e-07
8.50267e-07
8.50266e-07
8.51428e-07
8.51776e-07
8.52261e-07
8.51577e-07
8.50266e-07
8.50268e-07
8.50266e-07
8.50268e-07
8.50266e-07
8.50268e-07
8.50266e-07
8.50268e-07
8.50266e-07
8.51847e-07
8.52421e-07
8.5152e-07
8.50266e-07
8.50267e-07
8.50267e-07
8.50266e-07
8.50267e-07
8.50266e-07
8.50267e-07
8.50267e-07
8.50266e-07
8.51843e-07
8.52444e-07
8.51567e-07
8.50266e-07
8.50268e-07
8.50266e-07
8.50268e-07
8.50266e-07
8.50268e-07
8.50266e-07
8.50268e-07
8.50266e-07
8.51843e-07
8.52443e-07
8.52245e-07
8.51425e-07
8.50266e-07
8.50267e-07
8.50266e-07
8.50267e-07
8.50266e-07
8.50267e-07
8.50266e-07
8.51647e-07
8.51831e-07
8.52404e-07
8.52252e-07
8.51691e-07
8.51402e-07
8.50266e-07
8.50268e-07
8.50267e-07
8.50268e-07
8.50266e-07
8.51614e-07
8.51751e-07
8.51864e-07
8.52252e-07
8.51688e-07
8.51428e-07
8.50266e-07
8.50266e-07
8.50266e-07
8.51647e-07
8.51751e-07
8.51839e-07
8.52384e-07
8.52254e-07
8.51776e-07
8.51847e-07
8.51843e-07
8.51843e-07
8.51831e-07
8.51864e-07
8.52384e-07
8.52261e-07
8.52421e-07
8.52444e-07
8.52443e-07
8.52404e-07
8.44011e-07
8.4337e-07
8.43312e-07
8.43359e-07
8.44038e-07
8.44044e-07
8.44018e-07
8.43457e-07
8.43065e-07
8.42058e-07
8.42059e-07
8.42058e-07
8.43217e-07
8.43483e-07
8.44044e-07
8.43457e-07
8.43027e-07
8.42058e-07
8.4206e-07
8.42059e-07
8.4206e-07
8.42058e-07
8.43194e-07
8.4348e-07
8.44047e-07
8.44011e-07
8.43066e-07
8.42058e-07
8.42059e-07
8.42058e-07
8.42059e-07
8.42058e-07
8.42059e-07
8.42058e-07
8.4322e-07
8.43568e-07
8.44053e-07
8.4337e-07
8.42058e-07
8.4206e-07
8.42058e-07
8.4206e-07
8.42058e-07
8.4206e-07
8.42058e-07
8.4206e-07
8.42058e-07
8.43639e-07
8.44213e-07
8.43312e-07
8.42059e-07
8.42059e-07
8.42059e-07
8.42058e-07
8.42059e-07
8.42058e-07
8.42059e-07
8.42059e-07
8.42059e-07
8.43635e-07
8.44236e-07
8.43359e-07
8.42058e-07
8.4206e-07
8.42058e-07
8.4206e-07
8.42058e-07
8.4206e-07
8.42058e-07
8.4206e-07
8.42058e-07
8.43635e-07
8.44235e-07
8.44038e-07
8.43217e-07
8.42058e-07
8.42059e-07
8.42058e-07
8.42059e-07
8.42058e-07
8.42059e-07
8.42058e-07
8.43439e-07
8.43623e-07
8.44196e-07
8.44045e-07
8.43483e-07
8.43194e-07
8.42058e-07
8.4206e-07
8.42059e-07
8.4206e-07
8.42058e-07
8.43406e-07
8.43543e-07
8.43656e-07
8.44044e-07
8.4348e-07
8.4322e-07
8.42058e-07
8.42059e-07
8.42058e-07
8.43439e-07
8.43543e-07
8.43631e-07
8.44176e-07
8.44047e-07
8.43568e-07
8.43639e-07
8.43635e-07
8.43635e-07
8.43623e-07
8.43656e-07
8.44176e-07
8.44053e-07
8.44213e-07
8.44236e-07
8.44235e-07
8.44196e-07
8.35803e-07
8.35162e-07
8.35104e-07
8.35151e-07
8.3583e-07
8.35837e-07
8.35811e-07
8.35249e-07
8.34858e-07
8.3385e-07
8.33851e-07
8.3385e-07
8.35009e-07
8.35275e-07
8.35836e-07
8.35249e-07
8.34819e-07
8.3385e-07
8.33852e-07
8.33851e-07
8.33852e-07
8.3385e-07
8.34986e-07
8.35272e-07
8.35839e-07
8.35803e-07
8.34858e-07
8.3385e-07
8.33851e-07
8.3385e-07
8.33851e-07
8.3385e-07
8.33851e-07
8.3385e-07
8.35012e-07
8.3536e-07
8.35845e-07
8.35162e-07
8.3385e-07
8.33852e-07
8.3385e-07
8.33852e-07
8.33851e-07
8.33852e-07
8.3385e-07
8.33852e-07
8.3385e-07
8.35431e-07
8.36005e-07
8.35104e-07
8.33851e-07
8.33851e-07
8.33851e-07
8.33851e-07
8.33851e-07
8.33851e-07
8.33851e-07
8.33851e-07
8.33851e-07
8.35427e-07
8.36028e-07
8.35151e-07
8.3385e-07
8.33852e-07
8.3385e-07
8.33852e-07
8.33851e-07
8.33852e-07
8.3385e-07
8.33852e-07
8.3385e-07
8.35427e-07
8.36027e-07
8.3583e-07
8.35009e-07
8.3385e-07
8.33851e-07
8.3385e-07
8.33851e-07
8.3385e-07
8.33851e-07
8.3385e-07
8.35231e-07
8.35415e-07
8.35988e-07
8.35837e-07
8.35275e-07
8.34986e-07
8.3385e-07
8.33852e-07
8.33851e-07
8.33852e-07
8.3385e-07
8.35198e-07
8.35335e-07
8.35448e-07
8.35836e-07
8.35272e-07
8.35012e-07
8.3385e-07
8.33851e-07
8.3385e-07
8.35231e-07
8.35335e-07
8.35423e-07
8.35968e-07
8.35839e-07
8.3536e-07
8.35431e-07
8.35427e-07
8.35427e-07
8.35415e-07
8.35448e-07
8.35968e-07
8.35845e-07
8.36005e-07
8.36028e-07
8.36027e-07
8.35988e-07
8.27595e-07
8.26954e-07
8.26896e-07
8.26943e-07
8.27622e-07
8.27629e-07
8.27603e-07
8.27041e-07
8.2665e-07
8.25642e-07
8.25643e-07
8.25642e-07
8.26801e-07
8.27067e-07
8.27628e-07
8.27041e-07
8.26611e-07
8.25642e-07
8.25644e-07
8.25643e-07
8.25644e-07
8.25642e-07
8.26778e-07
8.27065e-07
8.27631e-07
8.27595e-07
8.2665e-07
8.25642e-07
8.25643e-07
8.25642e-07
8.25643e-07
8.25642e-07
8.25643e-07
8.25642e-07
8.26804e-07
8.27152e-07
8.27637e-07
8.26954e-07
8.25642e-07
8.25644e-07
8.25642e-07
8.25644e-07
8.25643e-07
8.25644e-07
8.25642e-07
8.25644e-07
8.25642e-07
8.27224e-07
8.27797e-07
8.26896e-07
8.25643e-07
8.25643e-07
8.25643e-07
8.25643e-07
8.25643e-07
8.25643e-07
8.25643e-07
8.25643e-07
8.25643e-07
8.27219e-07
8.2782e-07
8.26943e-07
8.25642e-07
8.25644e-07
8.25642e-07
8.25644e-07
8.25643e-07
8.25644e-07
8.25642e-07
8.25644e-07
8.25642e-07
8.27219e-07
8.2782e-07
8.27622e-07
8.26801e-07
8.25642e-07
8.25643e-07
8.25642e-07
8.25643e-07
8.25642e-07
8.25643e-07
8.25642e-07
8.27023e-07
8.27207e-07
8.2778e-07
8.27629e-07
8.27067e-07
8.26778e-07
8.25642e-07
8.25644e-07
8.25643e-07
8.25644e-07
8.25642e-07
8.2699e-07
8.27127e-07
8.2724e-07
8.27628e-07
8.27065e-07
8.26804e-07
8.25642e-07
8.25643e-07
8.25642e-07
8.27023e-07
8.27127e-07
8.27216e-07
8.27761e-07
8.27631e-07
8.27152e-07
8.27224e-07
8.27219e-07
8.27219e-07
8.27207e-07
8.2724e-07
8.2776e-07
8.27637e-07
8.27797e-07
8.2782e-07
8.2782e-07
8.2778e-07
8.19387e-07
8.18746e-07
8.18688e-07
8.18735e-07
8.19414e-07
8.19421e-07
8.19395e-07
8.18833e-07
8.18442e-07
8.17434e-07
8.17435e-07
8.17434e-07
8.18593e-07
8.18859e-07
8.1942e-07
8.18833e-07
8.18403e-07
8.17435e-07
8.17436e-07
8.17435e-07
8.17436e-07
8.17435e-07
8.1857e-07
8.18857e-07
8.19423e-07
8.19387e-07
8.18442e-07
8.17435e-07
8.17435e-07
8.17435e-07
8.17435e-07
8.17435e-07
8.17435e-07
8.17435e-07
8.18596e-07
8.18944e-07
8.19429e-07
8.18746e-07
8.17434e-07
8.17436e-07
8.17435e-07
8.17436e-07
8.17435e-07
8.17436e-07
8.17435e-07
8.17436e-07
8.17434e-07
8.19016e-07
8.1959e-07
8.18688e-07
8.17435e-07
8.17435e-07
8.17435e-07
8.17435e-07
8.17435e-07
8.17435e-07
8.17435e-07
8.17435e-07
8.17435e-07
8.19012e-07
8.19612e-07
8.18735e-07
8.17434e-07
8.17436e-07
8.17435e-07
8.17436e-07
8.17435e-07
8.17436e-07
8.17435e-07
8.17436e-07
8.17434e-07
8.19011e-07
8.19612e-07
8.19414e-07
8.18593e-07
8.17435e-07
8.17435e-07
8.17435e-07
8.17435e-07
8.17435e-07
8.17435e-07
8.17435e-07
8.18815e-07
8.18999e-07
8.19572e-07
8.19421e-07
8.18859e-07
8.1857e-07
8.17435e-07
8.17436e-07
8.17435e-07
8.17436e-07
8.17435e-07
8.18783e-07
8.18919e-07
8.19032e-07
8.1942e-07
8.18857e-07
8.18596e-07
8.17434e-07
8.17435e-07
8.17434e-07
8.18815e-07
8.18919e-07
8.19008e-07
8.19553e-07
8.19423e-07
8.18944e-07
8.19016e-07
8.19012e-07
8.19011e-07
8.18999e-07
8.19032e-07
8.19553e-07
8.19429e-07
8.1959e-07
8.19612e-07
8.19612e-07
8.19572e-07
8.11179e-07
8.10538e-07
8.1048e-07
8.10527e-07
8.11206e-07
8.11213e-07
8.11187e-07
8.10625e-07
8.10234e-07
8.09226e-07
8.09227e-07
8.09226e-07
8.10385e-07
8.10652e-07
8.11212e-07
8.10625e-07
8.10195e-07
8.09227e-07
8.09229e-07
8.09227e-07
8.09229e-07
8.09227e-07
8.10362e-07
8.10649e-07
8.11215e-07
8.11179e-07
8.10234e-07
8.09227e-07
8.09228e-07
8.09227e-07
8.09227e-07
8.09227e-07
8.09228e-07
8.09227e-07
8.10388e-07
8.10737e-07
8.11221e-07
8.10538e-07
8.09226e-07
8.09229e-07
8.09227e-07
8.09228e-07
8.09227e-07
8.09228e-07
8.09227e-07
8.09229e-07
8.09226e-07
8.10808e-07
8.11382e-07
8.1048e-07
8.09227e-07
8.09227e-07
8.09227e-07
8.09227e-07
8.09227e-07
8.09227e-07
8.09227e-07
8.09227e-07
8.09227e-07
8.10804e-07
8.11404e-07
8.10527e-07
8.09226e-07
8.09228e-07
8.09227e-07
8.09228e-07
8.09227e-07
8.09228e-07
8.09227e-07
8.09229e-07
8.09226e-07