/*--------------------------------*- C++ -*----------------------------------*\
| =========                 |                                                 |
| \\      /  F ield         | OpenFOAM: The Open Source CFD Toolbox           |
|  \\    /   O peration     | Version:  v2012                                 |
|   \\  /    A nd           | Website:  www.openfoam.com                      |
|    \\/     M anipulation  |                                                 |
\*---------------------------------------------------------------------------*/
FoamFile
{
    version     2.0;
    format      ascii;
    class       volScalarField;
    location    "58";
    object      p;
}
// * * * * * * * * * * * * * * * * * * * * * * * * * * * * * * * * * * * * * //

dimensions      [0 2 -2 0 0 0 0];


internalField   nonuniform List<scalar> 
292667
(
1.1347e-06
1.12551e-06
1.12479e-06
1.12486e-06
1.12583e-06
1.13558e-06
1.12572e-06
1.12324e-06
1.12178e-06
1.12118e-06
1.12125e-06
1.12203e-06
1.12371e-06
1.12642e-06
1.12572e-06
1.12251e-06
1.1205e-06
1.11939e-06
1.11892e-06
1.11898e-06
1.11959e-06
1.12088e-06
1.12314e-06
1.12662e-06
1.1347e-06
1.12324e-06
1.1205e-06
1.11887e-06
1.11795e-06
1.11756e-06
1.11762e-06
1.11812e-06
1.11918e-06
1.12103e-06
1.1241e-06
1.13426e-06
1.12551e-06
1.12178e-06
1.11939e-06
1.11795e-06
1.11714e-06
1.11679e-06
1.11684e-06
1.11729e-06
1.11824e-06
1.11987e-06
1.12257e-06
1.129e-06
1.12479e-06
1.12118e-06
1.11892e-06
1.11756e-06
1.11679e-06
1.11645e-06
1.1165e-06
1.11694e-06
1.11784e-06
1.11938e-06
1.12195e-06
1.12742e-06
1.12486e-06
1.12125e-06
1.11898e-06
1.11762e-06
1.11684e-06
1.1165e-06
1.11655e-06
1.11699e-06
1.11789e-06
1.11945e-06
1.12204e-06
1.12773e-06
1.12583e-06
1.12203e-06
1.11959e-06
1.11812e-06
1.11729e-06
1.11694e-06
1.11699e-06
1.11745e-06
1.11842e-06
1.12009e-06
1.12287e-06
1.1293e-06
1.13558e-06
1.12371e-06
1.12088e-06
1.11918e-06
1.11824e-06
1.11784e-06
1.11789e-06
1.11842e-06
1.11953e-06
1.12146e-06
1.12463e-06
1.13413e-06
1.12642e-06
1.12314e-06
1.12103e-06
1.11987e-06
1.11938e-06
1.11945e-06
1.12009e-06
1.12146e-06
1.12386e-06
1.12996e-06
1.12662e-06
1.1241e-06
1.12257e-06
1.12195e-06
1.12204e-06
1.12287e-06
1.12463e-06
1.12996e-06
1.13426e-06
1.129e-06
1.12742e-06
1.12773e-06
1.1293e-06
1.13413e-06
1.10934e-06
1.10859e-06
1.10856e-06
1.1086e-06
1.10935e-06
1.10923e-06
1.10939e-06
1.1088e-06
1.10844e-06
1.10715e-06
1.10713e-06
1.10715e-06
1.1086e-06
1.10885e-06
1.10942e-06
1.1088e-06
1.10842e-06
1.1072e-06
1.10715e-06
1.10719e-06
1.10715e-06
1.1072e-06
1.10858e-06
1.10883e-06
1.1094e-06
1.10934e-06
1.10844e-06
1.1072e-06
1.10714e-06
1.10717e-06
1.10715e-06
1.10717e-06
1.10714e-06
1.1072e-06
1.10857e-06
1.10886e-06
1.10943e-06
1.10859e-06
1.10715e-06
1.10715e-06
1.10717e-06
1.10713e-06
1.10713e-06
1.10713e-06
1.10717e-06
1.10715e-06
1.10715e-06
1.109e-06
1.1096e-06
1.10856e-06
1.10713e-06
1.10719e-06
1.10715e-06
1.10713e-06
1.10712e-06
1.10713e-06
1.10715e-06
1.10719e-06
1.10713e-06
1.10902e-06
1.10952e-06
1.1086e-06
1.10715e-06
1.10715e-06
1.10717e-06
1.10713e-06
1.10713e-06
1.10713e-06
1.10717e-06
1.10715e-06
1.10715e-06
1.10902e-06
1.10954e-06
1.10935e-06
1.1086e-06
1.1072e-06
1.10714e-06
1.10717e-06
1.10715e-06
1.10717e-06
1.10714e-06
1.1072e-06
1.10876e-06
1.10891e-06
1.10955e-06
1.10923e-06
1.10885e-06
1.10858e-06
1.1072e-06
1.10715e-06
1.10719e-06
1.10715e-06
1.1072e-06
1.10873e-06
1.10888e-06
1.10889e-06
1.10942e-06
1.10883e-06
1.10857e-06
1.10715e-06
1.10713e-06
1.10715e-06
1.10876e-06
1.10888e-06
1.10893e-06
1.10953e-06
1.1094e-06
1.10886e-06
1.109e-06
1.10902e-06
1.10902e-06
1.10891e-06
1.10889e-06
1.10953e-06
1.10943e-06
1.1096e-06
1.10952e-06
1.10954e-06
1.10955e-06
1.09992e-06
1.09912e-06
1.09906e-06
1.09911e-06
1.09991e-06
1.09995e-06
1.09994e-06
1.09924e-06
1.09882e-06
1.09758e-06
1.09758e-06
1.09758e-06
1.09898e-06
1.09928e-06
1.09993e-06
1.09924e-06
1.09881e-06
1.09762e-06
1.09762e-06
1.09766e-06
1.09762e-06
1.09762e-06
1.09898e-06
1.09927e-06
1.09993e-06
1.09992e-06
1.09882e-06
1.09762e-06
1.09764e-06
1.09769e-06
1.09769e-06
1.09769e-06
1.09764e-06
1.09762e-06
1.09899e-06
1.09933e-06
1.09996e-06
1.09912e-06
1.09758e-06
1.09763e-06
1.09769e-06
1.0977e-06
1.09772e-06
1.0977e-06
1.09769e-06
1.09763e-06
1.09758e-06
1.09939e-06
1.1001e-06
1.09906e-06
1.09758e-06
1.09766e-06
1.09769e-06
1.09772e-06
1.09772e-06
1.09772e-06
1.09769e-06
1.09766e-06
1.09758e-06
1.09939e-06
1.10012e-06
1.09911e-06
1.09758e-06
1.09762e-06
1.09769e-06
1.0977e-06
1.09772e-06
1.0977e-06
1.09769e-06
1.09762e-06
1.09758e-06
1.09939e-06
1.10012e-06
1.09991e-06
1.09898e-06
1.09762e-06
1.09764e-06
1.09769e-06
1.09769e-06
1.09769e-06
1.09764e-06
1.09762e-06
1.09919e-06
1.09938e-06
1.1001e-06
1.09995e-06
1.09928e-06
1.09898e-06
1.09762e-06
1.09763e-06
1.09766e-06
1.09763e-06
1.09762e-06
1.09917e-06
1.09932e-06
1.09941e-06
1.09993e-06
1.09927e-06
1.09899e-06
1.09758e-06
1.09758e-06
1.09758e-06
1.09919e-06
1.09932e-06
1.09939e-06
1.10008e-06
1.09993e-06
1.09933e-06
1.09939e-06
1.09939e-06
1.09939e-06
1.09938e-06
1.09941e-06
1.10008e-06
1.09996e-06
1.1001e-06
1.10012e-06
1.10012e-06
1.1001e-06
1.09051e-06
1.08971e-06
1.08964e-06
1.08969e-06
1.09051e-06
1.09054e-06
1.09053e-06
1.08982e-06
1.08938e-06
1.08812e-06
1.08812e-06
1.08812e-06
1.08953e-06
1.08984e-06
1.09053e-06
1.08982e-06
1.08935e-06
1.08814e-06
1.08816e-06
1.08818e-06
1.08816e-06
1.08814e-06
1.08952e-06
1.08984e-06
1.09053e-06
1.09051e-06
1.08938e-06
1.08814e-06
1.08817e-06
1.0882e-06
1.0882e-06
1.0882e-06
1.08817e-06
1.08814e-06
1.08954e-06
1.08992e-06
1.09056e-06
1.08971e-06
1.08812e-06
1.08816e-06
1.0882e-06
1.08822e-06
1.08823e-06
1.08822e-06
1.0882e-06
1.08816e-06
1.08812e-06
1.08996e-06
1.0907e-06
1.08964e-06
1.08812e-06
1.08818e-06
1.0882e-06
1.08823e-06
1.08824e-06
1.08823e-06
1.0882e-06
1.08818e-06
1.08812e-06
1.08995e-06
1.09071e-06
1.08969e-06
1.08812e-06
1.08816e-06
1.0882e-06
1.08822e-06
1.08823e-06
1.08822e-06
1.0882e-06
1.08816e-06
1.08812e-06
1.08996e-06
1.09071e-06
1.09051e-06
1.08953e-06
1.08814e-06
1.08817e-06
1.0882e-06
1.0882e-06
1.0882e-06
1.08817e-06
1.08814e-06
1.08975e-06
1.08996e-06
1.09069e-06
1.09054e-06
1.08984e-06
1.08952e-06
1.08814e-06
1.08816e-06
1.08818e-06
1.08816e-06
1.08814e-06
1.08972e-06
1.08988e-06
1.09e-06
1.09053e-06
1.08984e-06
1.08954e-06
1.08812e-06
1.08812e-06
1.08812e-06
1.08975e-06
1.08988e-06
1.08998e-06
1.09068e-06
1.09053e-06
1.08992e-06
1.08996e-06
1.08995e-06
1.08996e-06
1.08996e-06
1.09e-06
1.09068e-06
1.09056e-06
1.0907e-06
1.09071e-06
1.09071e-06
1.09069e-06
1.08111e-06
1.0803e-06
1.08023e-06
1.08028e-06
1.0811e-06
1.08114e-06
1.08113e-06
1.08041e-06
1.07996e-06
1.07869e-06
1.07869e-06
1.07869e-06
1.08011e-06
1.08043e-06
1.08112e-06
1.08041e-06
1.07993e-06
1.0787e-06
1.07872e-06
1.07872e-06
1.07872e-06
1.0787e-06
1.08009e-06
1.08042e-06
1.08112e-06
1.08111e-06
1.07996e-06
1.0787e-06
1.07872e-06
1.07874e-06
1.07874e-06
1.07874e-06
1.07872e-06
1.0787e-06
1.08012e-06
1.08051e-06
1.08116e-06
1.0803e-06
1.07869e-06
1.07872e-06
1.07874e-06
1.07875e-06
1.07876e-06
1.07875e-06
1.07874e-06
1.07872e-06
1.07869e-06
1.08055e-06
1.08129e-06
1.08023e-06
1.07869e-06
1.07872e-06
1.07874e-06
1.07876e-06
1.07877e-06
1.07876e-06
1.07874e-06
1.07872e-06
1.07869e-06
1.08054e-06
1.0813e-06
1.08028e-06
1.07869e-06
1.07872e-06
1.07874e-06
1.07875e-06
1.07876e-06
1.07875e-06
1.07874e-06
1.07872e-06
1.07869e-06
1.08054e-06
1.08131e-06
1.0811e-06
1.08011e-06
1.0787e-06
1.07872e-06
1.07874e-06
1.07874e-06
1.07874e-06
1.07872e-06
1.0787e-06
1.08033e-06
1.08055e-06
1.08129e-06
1.08114e-06
1.08043e-06
1.08009e-06
1.0787e-06
1.07872e-06
1.07872e-06
1.07872e-06
1.0787e-06
1.0803e-06
1.08047e-06
1.0806e-06
1.08112e-06
1.08042e-06
1.08012e-06
1.07869e-06
1.07869e-06
1.07869e-06
1.08033e-06
1.08047e-06
1.08057e-06
1.08127e-06
1.08112e-06
1.08051e-06
1.08055e-06
1.08054e-06
1.08054e-06
1.08055e-06
1.0806e-06
1.08127e-06
1.08116e-06
1.08129e-06
1.0813e-06
1.08131e-06
1.08129e-06
1.0717e-06
1.07089e-06
1.07082e-06
1.07087e-06
1.07169e-06
1.07173e-06
1.07172e-06
1.071e-06
1.07055e-06
1.06928e-06
1.06928e-06
1.06928e-06
1.0707e-06
1.07102e-06
1.07171e-06
1.071e-06
1.07052e-06
1.06928e-06
1.06929e-06
1.06929e-06
1.06929e-06
1.06928e-06
1.07068e-06
1.07101e-06
1.07172e-06
1.0717e-06
1.07055e-06
1.06928e-06
1.06929e-06
1.0693e-06
1.0693e-06
1.0693e-06
1.06929e-06
1.06928e-06
1.0707e-06
1.0711e-06
1.07175e-06
1.07089e-06
1.06928e-06
1.06929e-06
1.0693e-06
1.06931e-06
1.06932e-06
1.06931e-06
1.0693e-06
1.06929e-06
1.06928e-06
1.07114e-06
1.07189e-06
1.07082e-06
1.06928e-06
1.06929e-06
1.0693e-06
1.06932e-06
1.06932e-06
1.06932e-06
1.0693e-06
1.06929e-06
1.06928e-06
1.07113e-06
1.0719e-06
1.07087e-06
1.06928e-06
1.06929e-06
1.0693e-06
1.06931e-06
1.06932e-06
1.06931e-06
1.0693e-06
1.06929e-06
1.06928e-06
1.07113e-06
1.0719e-06
1.07169e-06
1.0707e-06
1.06928e-06
1.06929e-06
1.0693e-06
1.0693e-06
1.0693e-06
1.06929e-06
1.06928e-06
1.07091e-06
1.07114e-06
1.07188e-06
1.07173e-06
1.07102e-06
1.07068e-06
1.06928e-06
1.06929e-06
1.06929e-06
1.06929e-06
1.06928e-06
1.07088e-06
1.07106e-06
1.07119e-06
1.07171e-06
1.07101e-06
1.0707e-06
1.06928e-06
1.06928e-06
1.06928e-06
1.07091e-06
1.07106e-06
1.07117e-06
1.07186e-06
1.07172e-06
1.0711e-06
1.07114e-06
1.07113e-06
1.07113e-06
1.07114e-06
1.07119e-06
1.07186e-06
1.07175e-06
1.07189e-06
1.0719e-06
1.0719e-06
1.07188e-06
1.06229e-06
1.06148e-06
1.06141e-06
1.06146e-06
1.06228e-06
1.06232e-06
1.06231e-06
1.06159e-06
1.06114e-06
1.05986e-06
1.05986e-06
1.05986e-06
1.06129e-06
1.06161e-06
1.0623e-06
1.06159e-06
1.06111e-06
1.05987e-06
1.05987e-06
1.05987e-06
1.05987e-06
1.05987e-06
1.06127e-06
1.0616e-06
1.06231e-06
1.06229e-06
1.06114e-06
1.05987e-06
1.05987e-06
1.05988e-06
1.05988e-06
1.05988e-06
1.05987e-06
1.05987e-06
1.06129e-06
1.06169e-06
1.06234e-06
1.06148e-06
1.05986e-06
1.05987e-06
1.05988e-06
1.05988e-06
1.05989e-06
1.05988e-06
1.05988e-06
1.05987e-06
1.05986e-06
1.06173e-06
1.06248e-06
1.06141e-06
1.05986e-06
1.05987e-06
1.05988e-06
1.05988e-06
1.05989e-06
1.05988e-06
1.05988e-06
1.05987e-06
1.05986e-06
1.06172e-06
1.06249e-06
1.06146e-06
1.05986e-06
1.05987e-06
1.05988e-06
1.05988e-06
1.05989e-06
1.05988e-06
1.05988e-06
1.05987e-06
1.05986e-06
1.06172e-06
1.06249e-06
1.06228e-06
1.06129e-06
1.05987e-06
1.05987e-06
1.05988e-06
1.05988e-06
1.05988e-06
1.05987e-06
1.05987e-06
1.0615e-06
1.06173e-06
1.06247e-06
1.06232e-06
1.06161e-06
1.06127e-06
1.05987e-06
1.05987e-06
1.05987e-06
1.05987e-06
1.05987e-06
1.06147e-06
1.06165e-06
1.06178e-06
1.0623e-06
1.0616e-06
1.06129e-06
1.05986e-06
1.05986e-06
1.05986e-06
1.0615e-06
1.06165e-06
1.06176e-06
1.06245e-06
1.06231e-06
1.06169e-06
1.06173e-06
1.06172e-06
1.06172e-06
1.06173e-06
1.06178e-06
1.06245e-06
1.06234e-06
1.06248e-06
1.06249e-06
1.06249e-06
1.06247e-06
1.05288e-06
1.05207e-06
1.052e-06
1.05205e-06
1.05287e-06
1.05291e-06
1.0529e-06
1.05218e-06
1.05173e-06
1.05045e-06
1.05045e-06
1.05045e-06
1.05188e-06
1.0522e-06
1.05289e-06
1.05218e-06
1.05169e-06
1.05045e-06
1.05045e-06
1.05046e-06
1.05045e-06
1.05045e-06
1.05186e-06
1.05219e-06
1.0529e-06
1.05288e-06
1.05173e-06
1.05045e-06
1.05046e-06
1.05046e-06
1.05046e-06
1.05046e-06
1.05046e-06
1.05045e-06
1.05188e-06
1.05228e-06
1.05293e-06
1.05207e-06
1.05045e-06
1.05045e-06
1.05046e-06
1.05046e-06
1.05046e-06
1.05046e-06
1.05046e-06
1.05045e-06
1.05045e-06
1.05232e-06
1.05307e-06
1.052e-06
1.05045e-06
1.05046e-06
1.05046e-06
1.05046e-06
1.05046e-06
1.05046e-06
1.05046e-06
1.05046e-06
1.05045e-06
1.05231e-06
1.05308e-06
1.05205e-06
1.05045e-06
1.05045e-06
1.05046e-06
1.05046e-06
1.05046e-06
1.05046e-06
1.05046e-06
1.05045e-06
1.05045e-06
1.05231e-06
1.05308e-06
1.05287e-06
1.05188e-06
1.05045e-06
1.05046e-06
1.05046e-06
1.05046e-06
1.05046e-06
1.05046e-06
1.05045e-06
1.05209e-06
1.05232e-06
1.05306e-06
1.05291e-06
1.0522e-06
1.05186e-06
1.05045e-06
1.05045e-06
1.05046e-06
1.05045e-06
1.05045e-06
1.05206e-06
1.05224e-06
1.05237e-06
1.05289e-06
1.05219e-06
1.05188e-06
1.05045e-06
1.05045e-06
1.05045e-06
1.05209e-06
1.05224e-06
1.05235e-06
1.05305e-06
1.0529e-06
1.05228e-06
1.05232e-06
1.05231e-06
1.05231e-06
1.05232e-06
1.05237e-06
1.05305e-06
1.05293e-06
1.05307e-06
1.05308e-06
1.05308e-06
1.05306e-06
1.04347e-06
1.04266e-06
1.04259e-06
1.04264e-06
1.04346e-06
1.0435e-06
1.04349e-06
1.04277e-06
1.04232e-06
1.04104e-06
1.04104e-06
1.04104e-06
1.04247e-06
1.04279e-06
1.04348e-06
1.04277e-06
1.04228e-06
1.04104e-06
1.04104e-06
1.04104e-06
1.04104e-06
1.04104e-06
1.04245e-06
1.04278e-06
1.04349e-06
1.04347e-06
1.04232e-06
1.04104e-06
1.04104e-06
1.04104e-06
1.04104e-06
1.04104e-06
1.04104e-06
1.04104e-06
1.04247e-06
1.04287e-06
1.04352e-06
1.04266e-06
1.04104e-06
1.04104e-06
1.04104e-06
1.04105e-06
1.04105e-06
1.04105e-06
1.04104e-06
1.04104e-06
1.04104e-06
1.04291e-06
1.04366e-06
1.04259e-06
1.04104e-06
1.04104e-06
1.04104e-06
1.04105e-06
1.04105e-06
1.04105e-06
1.04104e-06
1.04104e-06
1.04104e-06
1.0429e-06
1.04367e-06
1.04264e-06
1.04104e-06
1.04104e-06
1.04104e-06
1.04105e-06
1.04105e-06
1.04105e-06
1.04104e-06
1.04104e-06
1.04104e-06
1.0429e-06
1.04367e-06
1.04346e-06
1.04247e-06
1.04104e-06
1.04104e-06
1.04104e-06
1.04104e-06
1.04104e-06
1.04104e-06
1.04104e-06
1.04268e-06
1.04291e-06
1.04365e-06
1.0435e-06
1.04279e-06
1.04245e-06
1.04104e-06
1.04104e-06
1.04104e-06
1.04104e-06
1.04104e-06
1.04265e-06
1.04283e-06
1.04296e-06
1.04348e-06
1.04278e-06
1.04247e-06
1.04104e-06
1.04104e-06
1.04104e-06
1.04268e-06
1.04283e-06
1.04294e-06
1.04364e-06
1.04349e-06
1.04287e-06
1.04291e-06
1.0429e-06
1.0429e-06
1.04291e-06
1.04296e-06
1.04364e-06
1.04352e-06
1.04366e-06
1.04367e-06
1.04367e-06
1.04365e-06
1.03406e-06
1.03325e-06
1.03318e-06
1.03323e-06
1.03405e-06
1.03409e-06
1.03408e-06
1.03336e-06
1.03291e-06
1.03163e-06
1.03163e-06
1.03163e-06
1.03306e-06
1.03338e-06
1.03407e-06
1.03336e-06
1.03287e-06
1.03163e-06
1.03163e-06
1.03163e-06
1.03163e-06
1.03163e-06
1.03304e-06
1.03337e-06
1.03408e-06
1.03406e-06
1.03291e-06
1.03163e-06
1.03163e-06
1.03163e-06
1.03163e-06
1.03163e-06
1.03163e-06
1.03163e-06
1.03306e-06
1.03346e-06
1.03411e-06
1.03325e-06
1.03163e-06
1.03163e-06
1.03163e-06
1.03163e-06
1.03163e-06
1.03163e-06
1.03163e-06
1.03163e-06
1.03163e-06
1.0335e-06
1.03425e-06
1.03318e-06
1.03163e-06
1.03163e-06
1.03163e-06
1.03163e-06
1.03163e-06
1.03163e-06
1.03163e-06
1.03163e-06
1.03163e-06
1.03349e-06
1.03426e-06
1.03323e-06
1.03163e-06
1.03163e-06
1.03163e-06
1.03163e-06
1.03163e-06
1.03163e-06
1.03163e-06
1.03163e-06
1.03163e-06
1.03349e-06
1.03426e-06
1.03405e-06
1.03306e-06
1.03163e-06
1.03163e-06
1.03163e-06
1.03163e-06
1.03163e-06
1.03163e-06
1.03163e-06
1.03327e-06
1.0335e-06
1.03424e-06
1.03409e-06
1.03338e-06
1.03304e-06
1.03163e-06
1.03163e-06
1.03163e-06
1.03163e-06
1.03163e-06
1.03324e-06
1.03342e-06
1.03355e-06
1.03407e-06
1.03337e-06
1.03306e-06
1.03163e-06
1.03163e-06
1.03163e-06
1.03327e-06
1.03342e-06
1.03353e-06
1.03423e-06
1.03408e-06
1.03346e-06
1.0335e-06
1.03349e-06
1.03349e-06
1.0335e-06
1.03355e-06
1.03423e-06
1.03411e-06
1.03425e-06
1.03426e-06
1.03426e-06
1.03424e-06
1.02465e-06
1.02384e-06
1.02377e-06
1.02382e-06
1.02464e-06
1.02468e-06
1.02467e-06
1.02395e-06
1.0235e-06
1.02222e-06
1.02222e-06
1.02222e-06
1.02365e-06
1.02397e-06
1.02466e-06
1.02395e-06
1.02346e-06
1.02222e-06
1.02222e-06
1.02222e-06
1.02222e-06
1.02222e-06
1.02362e-06
1.02396e-06
1.02467e-06
1.02465e-06
1.0235e-06
1.02222e-06
1.02222e-06
1.02222e-06
1.02222e-06
1.02222e-06
1.02222e-06
1.02222e-06
1.02365e-06
1.02405e-06
1.0247e-06
1.02384e-06
1.02222e-06
1.02222e-06
1.02222e-06
1.02222e-06
1.02222e-06
1.02222e-06
1.02222e-06
1.02222e-06
1.02222e-06
1.02409e-06
1.02484e-06
1.02377e-06
1.02222e-06
1.02222e-06
1.02222e-06
1.02222e-06
1.02222e-06
1.02222e-06
1.02222e-06
1.02222e-06
1.02222e-06
1.02408e-06
1.02485e-06
1.02382e-06
1.02222e-06
1.02222e-06
1.02222e-06
1.02222e-06
1.02222e-06
1.02222e-06
1.02222e-06
1.02222e-06
1.02222e-06
1.02408e-06
1.02485e-06
1.02464e-06
1.02365e-06
1.02222e-06
1.02222e-06
1.02222e-06
1.02222e-06
1.02222e-06
1.02222e-06
1.02222e-06
1.02386e-06
1.02409e-06
1.02483e-06
1.02468e-06
1.02397e-06
1.02362e-06
1.02222e-06
1.02222e-06
1.02222e-06
1.02222e-06
1.02222e-06
1.02383e-06
1.02401e-06
1.02414e-06
1.02466e-06
1.02396e-06
1.02365e-06
1.02222e-06
1.02222e-06
1.02222e-06
1.02386e-06
1.02401e-06
1.02412e-06
1.02482e-06
1.02467e-06
1.02405e-06
1.02409e-06
1.02408e-06
1.02408e-06
1.02409e-06
1.02414e-06
1.02482e-06
1.0247e-06
1.02484e-06
1.02485e-06
1.02485e-06
1.02483e-06
1.01524e-06
1.01443e-06
1.01436e-06
1.01441e-06
1.01523e-06
1.01527e-06
1.01526e-06
1.01454e-06
1.01409e-06
1.01281e-06
1.01281e-06
1.01281e-06
1.01424e-06
1.01456e-06
1.01525e-06
1.01454e-06
1.01405e-06
1.01281e-06
1.01281e-06
1.01281e-06
1.01281e-06
1.01281e-06
1.01421e-06
1.01455e-06
1.01526e-06
1.01524e-06
1.01409e-06
1.01281e-06
1.01281e-06
1.01281e-06
1.01281e-06
1.01281e-06
1.01281e-06
1.01281e-06
1.01424e-06
1.01464e-06
1.01529e-06
1.01443e-06
1.01281e-06
1.01281e-06
1.01281e-06
1.01281e-06
1.01281e-06
1.01281e-06
1.01281e-06
1.01281e-06
1.01281e-06
1.01468e-06
1.01543e-06
1.01436e-06
1.01281e-06
1.01281e-06
1.01281e-06
1.01281e-06
1.01281e-06
1.01281e-06
1.01281e-06
1.01281e-06
1.01281e-06
1.01467e-06
1.01544e-06
1.01441e-06
1.01281e-06
1.01281e-06
1.01281e-06
1.01281e-06
1.01281e-06
1.01281e-06
1.01281e-06
1.01281e-06
1.01281e-06
1.01467e-06
1.01544e-06
1.01523e-06
1.01424e-06
1.01281e-06
1.01281e-06
1.01281e-06
1.01281e-06
1.01281e-06
1.01281e-06
1.01281e-06
1.01445e-06
1.01468e-06
1.01542e-06
1.01527e-06
1.01456e-06
1.01421e-06
1.01281e-06
1.01281e-06
1.01281e-06
1.01281e-06
1.01281e-06
1.01442e-06
1.0146e-06
1.01473e-06
1.01525e-06
1.01455e-06
1.01424e-06
1.01281e-06
1.01281e-06
1.01281e-06
1.01445e-06
1.0146e-06
1.01471e-06
1.01541e-06
1.01526e-06
1.01464e-06
1.01468e-06
1.01467e-06
1.01467e-06
1.01468e-06
1.01473e-06
1.01541e-06
1.01529e-06
1.01543e-06
1.01544e-06
1.01544e-06
1.01542e-06
1.00583e-06
1.00502e-06
1.00495e-06
1.005e-06
1.00582e-06
1.00586e-06
1.00585e-06
1.00513e-06
1.00468e-06
1.0034e-06
1.0034e-06
1.0034e-06
1.00483e-06
1.00515e-06
1.00584e-06
1.00513e-06
1.00464e-06
1.0034e-06
1.0034e-06
1.0034e-06
1.0034e-06
1.0034e-06
1.0048e-06
1.00514e-06
1.00585e-06
1.00583e-06
1.00468e-06
1.0034e-06
1.0034e-06
1.0034e-06
1.0034e-06
1.0034e-06
1.0034e-06
1.0034e-06
1.00483e-06
1.00523e-06
1.00588e-06
1.00502e-06
1.0034e-06
1.0034e-06
1.0034e-06
1.0034e-06
1.0034e-06
1.0034e-06
1.0034e-06
1.0034e-06
1.0034e-06
1.00527e-06
1.00602e-06
1.00495e-06
1.0034e-06
1.0034e-06
1.0034e-06
1.0034e-06
1.0034e-06
1.0034e-06
1.0034e-06
1.0034e-06
1.0034e-06
1.00526e-06
1.00603e-06
1.005e-06
1.0034e-06
1.0034e-06
1.0034e-06
1.0034e-06
1.0034e-06
1.0034e-06
1.0034e-06
1.0034e-06
1.0034e-06
1.00526e-06
1.00603e-06
1.00582e-06
1.00483e-06
1.0034e-06
1.0034e-06
1.0034e-06
1.0034e-06
1.0034e-06
1.0034e-06
1.0034e-06
1.00504e-06
1.00527e-06
1.00601e-06
1.00586e-06
1.00515e-06
1.0048e-06
1.0034e-06
1.0034e-06
1.0034e-06
1.0034e-06
1.0034e-06
1.00501e-06
1.00519e-06
1.00532e-06
1.00584e-06
1.00514e-06
1.00483e-06
1.0034e-06
1.0034e-06
1.0034e-06
1.00504e-06
1.00519e-06
1.0053e-06
1.006e-06
1.00585e-06
1.00523e-06
1.00527e-06
1.00526e-06
1.00526e-06
1.00527e-06
1.00532e-06
1.006e-06
1.00588e-06
1.00602e-06
1.00603e-06
1.00603e-06
1.00601e-06
9.96419e-07
9.95609e-07
9.95543e-07
9.95591e-07
9.96413e-07
9.9645e-07
9.96442e-07
9.95724e-07
9.95268e-07
9.93988e-07
9.93988e-07
9.93988e-07
9.95418e-07
9.95735e-07
9.96434e-07
9.95724e-07
9.95233e-07
9.93988e-07
9.93989e-07
9.93988e-07
9.93989e-07
9.93988e-07
9.95394e-07
9.95733e-07
9.96438e-07
9.96418e-07
9.95268e-07
9.93988e-07
9.93989e-07
9.93988e-07
9.93989e-07
9.93988e-07
9.93989e-07
9.93988e-07
9.95419e-07
9.95818e-07
9.96469e-07
9.95609e-07
9.93988e-07
9.93989e-07
9.93988e-07
9.93989e-07
9.93989e-07
9.93989e-07
9.93988e-07
9.93989e-07
9.93988e-07
9.95859e-07
9.96606e-07
9.95543e-07
9.93988e-07
9.93988e-07
9.93989e-07
9.93989e-07
9.93989e-07
9.93989e-07
9.93989e-07
9.93988e-07
9.93988e-07
9.95846e-07
9.96617e-07
9.95591e-07
9.93988e-07
9.93989e-07
9.93988e-07
9.93989e-07
9.93989e-07
9.93989e-07
9.93988e-07
9.93989e-07
9.93988e-07
9.95851e-07
9.96617e-07
9.96413e-07
9.95417e-07
9.93988e-07
9.93989e-07
9.93988e-07
9.93989e-07
9.93988e-07
9.93989e-07
9.93988e-07
9.95629e-07
9.9586e-07
9.96602e-07
9.9645e-07
9.95735e-07
9.95394e-07
9.93988e-07
9.93989e-07
9.93988e-07
9.93989e-07
9.93988e-07
9.95595e-07
9.95778e-07
9.95913e-07
9.96434e-07
9.95733e-07
9.95419e-07
9.93988e-07
9.93988e-07
9.93988e-07
9.95629e-07
9.95778e-07
9.95888e-07
9.96586e-07
9.96438e-07
9.95818e-07
9.95859e-07
9.95846e-07
9.95851e-07
9.9586e-07
9.95913e-07
9.96585e-07
9.96469e-07
9.96606e-07
9.96617e-07
9.96617e-07
9.96602e-07
9.87008e-07
9.86199e-07
9.86133e-07
9.86181e-07
9.87003e-07
9.8704e-07
9.87032e-07
9.86314e-07
9.85858e-07
9.84578e-07
9.84578e-07
9.84578e-07
9.86007e-07
9.86325e-07
9.87024e-07
9.86314e-07
9.85823e-07
9.84578e-07
9.84579e-07
9.84578e-07
9.84579e-07
9.84578e-07
9.85984e-07
9.86323e-07
9.87028e-07
9.87008e-07
9.85858e-07
9.84578e-07
9.84579e-07
9.84578e-07
9.84578e-07
9.84578e-07
9.84579e-07
9.84578e-07
9.86009e-07
9.86407e-07
9.87059e-07
9.86199e-07
9.84578e-07
9.84579e-07
9.84578e-07
9.84579e-07
9.84578e-07
9.84579e-07
9.84578e-07
9.84579e-07
9.84578e-07
9.86449e-07
9.87196e-07
9.86133e-07
9.84578e-07
9.84578e-07
9.84578e-07
9.84578e-07
9.84578e-07
9.84578e-07
9.84578e-07
9.84578e-07
9.84578e-07
9.86436e-07
9.87207e-07
9.86181e-07
9.84578e-07
9.84579e-07
9.84578e-07
9.84579e-07
9.84578e-07
9.84579e-07
9.84578e-07
9.84579e-07
9.84578e-07
9.86441e-07
9.87207e-07
9.87003e-07
9.86007e-07
9.84578e-07
9.84579e-07
9.84578e-07
9.84578e-07
9.84578e-07
9.84579e-07
9.84578e-07
9.86219e-07
9.8645e-07
9.87192e-07
9.8704e-07
9.86325e-07
9.85984e-07
9.84578e-07
9.84579e-07
9.84578e-07
9.84579e-07
9.84578e-07
9.86185e-07
9.86368e-07
9.86503e-07
9.87024e-07
9.86323e-07
9.86009e-07
9.84578e-07
9.84578e-07
9.84578e-07
9.86219e-07
9.86368e-07
9.86478e-07
9.87175e-07
9.87028e-07
9.86407e-07
9.86449e-07
9.86436e-07
9.86441e-07
9.8645e-07
9.86502e-07
9.87175e-07
9.87059e-07
9.87196e-07
9.87207e-07
9.87207e-07
9.87192e-07
9.77598e-07
9.76788e-07
9.76723e-07
9.76771e-07
9.77593e-07
9.77629e-07
9.77622e-07
9.76903e-07
9.76448e-07
9.75167e-07
9.75168e-07
9.75167e-07
9.76597e-07
9.76915e-07
9.77614e-07
9.76904e-07
9.76413e-07
9.75168e-07
9.75169e-07
9.75168e-07
9.75169e-07
9.75168e-07
9.76574e-07
9.76913e-07
9.77618e-07
9.77598e-07
9.76448e-07
9.75168e-07
9.75168e-07
9.75168e-07
9.75168e-07
9.75168e-07
9.75168e-07
9.75168e-07
9.76599e-07
9.76997e-07
9.77649e-07
9.76788e-07
9.75167e-07
9.75169e-07
9.75168e-07
9.75169e-07
9.75168e-07
9.75169e-07
9.75168e-07
9.75169e-07
9.75167e-07
9.77039e-07
9.77786e-07
9.76723e-07
9.75168e-07
9.75168e-07
9.75168e-07
9.75168e-07
9.75168e-07
9.75168e-07
9.75168e-07
9.75168e-07
9.75168e-07
9.77026e-07
9.77796e-07
9.76771e-07
9.75167e-07
9.75169e-07
9.75168e-07
9.75169e-07
9.75168e-07
9.75169e-07
9.75168e-07
9.75169e-07
9.75167e-07
9.77031e-07
9.77797e-07
9.77593e-07
9.76597e-07
9.75168e-07
9.75168e-07
9.75168e-07
9.75168e-07
9.75168e-07
9.75168e-07
9.75168e-07
9.76809e-07
9.7704e-07
9.77782e-07
9.77629e-07
9.76915e-07
9.76574e-07
9.75168e-07
9.75169e-07
9.75168e-07
9.75169e-07
9.75168e-07
9.76775e-07
9.76958e-07
9.77092e-07
9.77614e-07
9.76913e-07
9.76599e-07
9.75167e-07
9.75168e-07
9.75167e-07
9.76809e-07
9.76958e-07
9.77068e-07
9.77765e-07
9.77618e-07
9.76997e-07
9.77039e-07
9.77026e-07
9.77031e-07
9.7704e-07
9.77092e-07
9.77765e-07
9.77649e-07
9.77786e-07
9.77797e-07
9.77797e-07
9.77782e-07
9.68188e-07
9.67378e-07
9.67312e-07
9.67361e-07
9.68183e-07
9.68219e-07
9.68212e-07
9.67493e-07
9.67038e-07
9.65757e-07
9.65758e-07
9.65757e-07
9.67187e-07
9.67505e-07
9.68204e-07
9.67493e-07
9.67003e-07
9.65758e-07
9.65759e-07
9.65758e-07
9.65759e-07
9.65758e-07
9.67164e-07
9.67502e-07
9.68207e-07
9.68188e-07
9.67038e-07
9.65758e-07
9.65758e-07
9.65758e-07
9.65758e-07
9.65758e-07
9.65758e-07
9.65758e-07
9.67189e-07
9.67587e-07
9.68239e-07
9.67378e-07
9.65757e-07
9.65759e-07
9.65758e-07
9.65759e-07
9.65758e-07
9.65759e-07
9.65758e-07
9.65759e-07
9.65757e-07
9.67629e-07
9.68376e-07
9.67312e-07
9.65758e-07
9.65758e-07
9.65758e-07
9.65758e-07
9.65758e-07
9.65758e-07
9.65758e-07
9.65758e-07
9.65758e-07
9.67616e-07
9.68386e-07
9.67361e-07
9.65757e-07
9.65759e-07
9.65758e-07
9.65759e-07
9.65758e-07
9.65759e-07
9.65758e-07
9.65759e-07
9.65757e-07
9.67621e-07
9.68387e-07
9.68183e-07
9.67187e-07
9.65758e-07
9.65758e-07
9.65758e-07
9.65758e-07
9.65758e-07
9.65758e-07
9.65758e-07
9.67399e-07
9.6763e-07
9.68372e-07
9.68219e-07
9.67505e-07
9.67164e-07
9.65758e-07
9.65759e-07
9.65758e-07
9.65759e-07
9.65758e-07
9.67365e-07
9.67548e-07
9.67682e-07
9.68204e-07
9.67502e-07
9.67189e-07
9.65757e-07
9.65758e-07
9.65757e-07
9.67399e-07
9.67548e-07
9.67658e-07
9.68355e-07
9.68207e-07
9.67587e-07
9.67629e-07
9.67616e-07
9.67621e-07
9.6763e-07
9.67682e-07
9.68355e-07
9.68239e-07
9.68376e-07
9.68386e-07
9.68387e-07
9.68372e-07
9.58778e-07
9.57968e-07
9.57902e-07
9.57951e-07
9.58773e-07
9.58809e-07
9.58802e-07
9.58083e-07
9.57628e-07
9.56347e-07
9.56348e-07
9.56347e-07
9.57777e-07
9.58095e-07
9.58794e-07
9.58083e-07
9.57592e-07
9.56347e-07
9.56349e-07
9.56348e-07
9.56349e-07
9.56347e-07
9.57754e-07
9.58092e-07
9.58797e-07
9.58778e-07
9.57628e-07
9.56347e-07
9.56348e-07
9.56348e-07
9.56348e-07
9.56348e-07
9.56348e-07
9.56347e-07
9.57779e-07
9.58177e-07
9.58829e-07
9.57968e-07
9.56347e-07
9.56349e-07
9.56348e-07
9.56349e-07
9.56348e-07
9.56349e-07
9.56348e-07
9.56349e-07
9.56347e-07
9.58219e-07
9.58966e-07
9.57902e-07
9.56348e-07
9.56348e-07
9.56348e-07
9.56348e-07
9.56348e-07
9.56348e-07
9.56348e-07
9.56348e-07
9.56348e-07
9.58206e-07
9.58976e-07
9.57951e-07
9.56347e-07
9.56349e-07
9.56348e-07
9.56349e-07
9.56348e-07
9.56349e-07
9.56348e-07
9.56349e-07
9.56347e-07
9.58211e-07
9.58977e-07
9.58773e-07
9.57777e-07
9.56347e-07
9.56348e-07
9.56348e-07
9.56348e-07
9.56348e-07
9.56348e-07
9.56347e-07
9.57988e-07
9.58219e-07
9.58962e-07
9.58809e-07
9.58095e-07
9.57754e-07
9.56347e-07
9.56349e-07
9.56348e-07
9.56349e-07
9.56347e-07
9.57955e-07
9.58137e-07
9.58272e-07
9.58794e-07
9.58092e-07
9.57779e-07
9.56347e-07
9.56348e-07
9.56347e-07
9.57988e-07
9.58137e-07
9.58248e-07
9.58945e-07
9.58797e-07
9.58177e-07
9.58219e-07
9.58206e-07
9.58211e-07
9.58219e-07
9.58272e-07
9.58945e-07
9.58829e-07
9.58966e-07
9.58976e-07
9.58977e-07
9.58962e-07
9.49368e-07
9.48558e-07
9.48492e-07
9.48541e-07
9.49362e-07
9.49399e-07
9.49392e-07
9.48673e-07
9.48218e-07
9.46937e-07
9.46938e-07
9.46937e-07
9.48367e-07
9.48684e-07
9.49384e-07
9.48673e-07
9.48182e-07
9.46937e-07
9.46939e-07
9.46938e-07
9.46939e-07
9.46937e-07
9.48344e-07
9.48682e-07
9.49387e-07
9.49368e-07
9.48218e-07
9.46937e-07
9.46938e-07
9.46937e-07
9.46938e-07
9.46937e-07
9.46938e-07
9.46937e-07
9.48369e-07
9.48767e-07
9.49418e-07
9.48558e-07
9.46937e-07
9.46939e-07
9.46937e-07
9.46938e-07
9.46938e-07
9.46938e-07
9.46937e-07
9.46939e-07
9.46937e-07
9.48809e-07
9.49556e-07
9.48492e-07
9.46938e-07
9.46938e-07
9.46938e-07
9.46938e-07
9.46938e-07
9.46938e-07
9.46938e-07
9.46938e-07
9.46938e-07
9.48796e-07
9.49566e-07
9.48541e-07
9.46937e-07
9.46939e-07
9.46937e-07
9.46938e-07
9.46938e-07
9.46938e-07
9.46937e-07
9.46939e-07
9.46937e-07
9.48801e-07
9.49567e-07
9.49362e-07
9.48367e-07
9.46937e-07
9.46938e-07
9.46937e-07
9.46938e-07
9.46937e-07
9.46938e-07
9.46937e-07
9.48578e-07
9.48809e-07
9.49551e-07
9.49399e-07
9.48684e-07
9.48344e-07
9.46937e-07
9.46939e-07
9.46938e-07
9.46939e-07
9.46937e-07
9.48545e-07
9.48727e-07
9.48862e-07
9.49384e-07
9.48682e-07
9.48369e-07
9.46937e-07
9.46938e-07
9.46937e-07
9.48578e-07
9.48727e-07
9.48837e-07
9.49535e-07
9.49387e-07
9.48767e-07
9.48809e-07
9.48796e-07
9.48801e-07
9.48809e-07
9.48862e-07
9.49535e-07
9.49418e-07
9.49556e-07
9.49566e-07
9.49567e-07
9.49551e-07
9.39958e-07
9.39148e-07
9.39082e-07
9.39131e-07
9.39952e-07
9.39989e-07
9.39981e-07
9.39263e-07
9.38807e-07
9.37527e-07
9.37527e-07
9.37527e-07
9.38957e-07
9.39274e-07
9.39973e-07
9.39263e-07
9.38772e-07
9.37527e-07
9.37528e-07
9.37528e-07
9.37528e-07
9.37527e-07
9.38934e-07
9.39272e-07
9.39977e-07
9.39958e-07
9.38807e-07
9.37527e-07
9.37528e-07
9.37527e-07
9.37528e-07
9.37527e-07
9.37528e-07
9.37527e-07
9.38958e-07
9.39357e-07
9.40008e-07
9.39148e-07
9.37527e-07
9.37528e-07
9.37527e-07
9.37528e-07
9.37527e-07
9.37528e-07
9.37527e-07
9.37528e-07
9.37527e-07
9.39399e-07
9.40145e-07
9.39082e-07
9.37527e-07
9.37528e-07
9.37528e-07
9.37527e-07
9.37528e-07
9.37527e-07
9.37528e-07
9.37528e-07
9.37527e-07
9.39386e-07
9.40156e-07
9.39131e-07
9.37527e-07
9.37528e-07
9.37527e-07
9.37528e-07
9.37527e-07
9.37528e-07
9.37527e-07
9.37528e-07
9.37527e-07
9.39391e-07
9.40157e-07
9.39952e-07
9.38957e-07
9.37527e-07
9.37528e-07
9.37527e-07
9.37528e-07
9.37527e-07
9.37528e-07
9.37527e-07
9.39168e-07
9.39399e-07
9.40141e-07
9.39989e-07
9.39274e-07
9.38934e-07
9.37527e-07
9.37528e-07
9.37528e-07
9.37528e-07
9.37527e-07
9.39135e-07
9.39317e-07
9.39452e-07
9.39973e-07
9.39272e-07
9.38958e-07
9.37527e-07
9.37527e-07
9.37527e-07
9.39168e-07
9.39317e-07
9.39427e-07
9.40125e-07
9.39977e-07
9.39357e-07
9.39399e-07
9.39385e-07
9.39391e-07
9.39399e-07
9.39452e-07
9.40125e-07
9.40008e-07
9.40145e-07
9.40156e-07
9.40157e-07
9.40141e-07
9.30548e-07
9.29738e-07
9.29672e-07
9.2972e-07
9.30542e-07
9.30579e-07
9.30571e-07
9.29853e-07
9.29397e-07
9.28117e-07
9.28117e-07
9.28117e-07
9.29547e-07
9.29864e-07
9.30563e-07
9.29853e-07
9.29362e-07
9.28117e-07
9.28118e-07
9.28117e-07
9.28118e-07
9.28117e-07
9.29524e-07
9.29862e-07
9.30567e-07
9.30548e-07
9.29397e-07
9.28117e-07
9.28118e-07
9.28117e-07
9.28117e-07
9.28117e-07
9.28118e-07
9.28117e-07
9.29548e-07
9.29947e-07
9.30598e-07
9.29738e-07
9.28117e-07
9.28118e-07
9.28117e-07
9.28118e-07
9.28117e-07
9.28118e-07
9.28117e-07
9.28118e-07
9.28117e-07
9.29989e-07
9.30735e-07
9.29672e-07
9.28117e-07
9.28117e-07
9.28117e-07
9.28117e-07
9.28117e-07
9.28117e-07
9.28117e-07
9.28117e-07
9.28117e-07
9.29975e-07
9.30746e-07
9.2972e-07
9.28117e-07
9.28118e-07
9.28117e-07
9.28118e-07