/*--------------------------------*- C++ -*----------------------------------*\
| =========                 |                                                 |
| \\      /  F ield         | OpenFOAM: The Open Source CFD Toolbox           |
|  \\    /   O peration     | Version:  v2012                                 |
|   \\  /    A nd           | Website:  www.openfoam.com                      |
|    \\/     M anipulation  |                                                 |
\*---------------------------------------------------------------------------*/
FoamFile
{
    version     2.0;
    format      ascii;
    class       volScalarField;
    location    "7";
    object      p;
}
// * * * * * * * * * * * * * * * * * * * * * * * * * * * * * * * * * * * * * //

dimensions      [0 2 -2 0 0 0 0];


internalField   nonuniform List<scalar> 
292667
(
1.96847e-06
1.95028e-06
1.94857e-06
1.94872e-06
1.95122e-06
1.96952e-06
1.95081e-06
1.94514e-06
1.94201e-06
1.94076e-06
1.94093e-06
1.9426e-06
1.94632e-06
1.95266e-06
1.95081e-06
1.94363e-06
1.93951e-06
1.93729e-06
1.93636e-06
1.93649e-06
1.93772e-06
1.94034e-06
1.94512e-06
1.95318e-06
1.96846e-06
1.94514e-06
1.93951e-06
1.93633e-06
1.93456e-06
1.93381e-06
1.93391e-06
1.9349e-06
1.93697e-06
1.94064e-06
1.94715e-06
1.97029e-06
1.95028e-06
1.94201e-06
1.93729e-06
1.93456e-06
1.93303e-06
1.93236e-06
1.93245e-06
1.93332e-06
1.93512e-06
1.93824e-06
1.94371e-06
1.9581e-06
1.94857e-06
1.94076e-06
1.93636e-06
1.93381e-06
1.93236e-06
1.93173e-06
1.93182e-06
1.93264e-06
1.93433e-06
1.93724e-06
1.94233e-06
1.95438e-06
1.94872e-06
1.94093e-06
1.93649e-06
1.93391e-06
1.93245e-06
1.93182e-06
1.93191e-06
1.93273e-06
1.93443e-06
1.93738e-06
1.9425e-06
1.95442e-06
1.95122e-06
1.9426e-06
1.93771e-06
1.9349e-06
1.93332e-06
1.93264e-06
1.93273e-06
1.93362e-06
1.93546e-06
1.93868e-06
1.94433e-06
1.95873e-06
1.96952e-06
1.94632e-06
1.94034e-06
1.93697e-06
1.93512e-06
1.93433e-06
1.93443e-06
1.93546e-06
1.93764e-06
1.94152e-06
1.94836e-06
1.97101e-06
1.95266e-06
1.94512e-06
1.94064e-06
1.93824e-06
1.93724e-06
1.93738e-06
1.93868e-06
1.94152e-06
1.94667e-06
1.95917e-06
1.95317e-06
1.94715e-06
1.94371e-06
1.94233e-06
1.9425e-06
1.94433e-06
1.94836e-06
1.95917e-06
1.97029e-06
1.9581e-06
1.95438e-06
1.95442e-06
1.95873e-06
1.97101e-06
1.91973e-06
1.91789e-06
1.91779e-06
1.91786e-06
1.91943e-06
1.91955e-06
1.91978e-06
1.91832e-06
1.91767e-06
1.91508e-06
1.91512e-06
1.91509e-06
1.91754e-06
1.91805e-06
1.91952e-06
1.9183e-06
1.91765e-06
1.91521e-06
1.9151e-06
1.91509e-06
1.9151e-06
1.91521e-06
1.91741e-06
1.91806e-06
1.9195e-06
1.91972e-06
1.91767e-06
1.91521e-06
1.91513e-06
1.91508e-06
1.91506e-06
1.91508e-06
1.91513e-06
1.91521e-06
1.91741e-06
1.91807e-06
1.91984e-06
1.91789e-06
1.91508e-06
1.9151e-06
1.91508e-06
1.91504e-06
1.91502e-06
1.91504e-06
1.91508e-06
1.9151e-06
1.91508e-06
1.91785e-06
1.91944e-06
1.91779e-06
1.91512e-06
1.91509e-06
1.91506e-06
1.91502e-06
1.91501e-06
1.91502e-06
1.91506e-06
1.91508e-06
1.91512e-06
1.91768e-06
1.91911e-06
1.91786e-06
1.91509e-06
1.9151e-06
1.91508e-06
1.91504e-06
1.91502e-06
1.91504e-06
1.91508e-06
1.9151e-06
1.91509e-06
1.91775e-06
1.91916e-06
1.91943e-06
1.91754e-06
1.91521e-06
1.91513e-06
1.91508e-06
1.91506e-06
1.91508e-06
1.91513e-06
1.91521e-06
1.91718e-06
1.91798e-06
1.91962e-06
1.91955e-06
1.91805e-06
1.91741e-06
1.91521e-06
1.9151e-06
1.91508e-06
1.9151e-06
1.91521e-06
1.91713e-06
1.91781e-06
1.9182e-06
1.91952e-06
1.91806e-06
1.91741e-06
1.91508e-06
1.91512e-06
1.91509e-06
1.91718e-06
1.91781e-06
1.91833e-06
1.91973e-06
1.9195e-06
1.91807e-06
1.91784e-06
1.91768e-06
1.91775e-06
1.91798e-06
1.91819e-06
1.91973e-06
1.91984e-06
1.91944e-06
1.91911e-06
1.91916e-06
1.91962e-06
1.90325e-06
1.90158e-06
1.90154e-06
1.90156e-06
1.90302e-06
1.90325e-06
1.90337e-06
1.9018e-06
1.90123e-06
1.89853e-06
1.89852e-06
1.89853e-06
1.90116e-06
1.90161e-06
1.9031e-06
1.9018e-06
1.90118e-06
1.89859e-06
1.89855e-06
1.89856e-06
1.89855e-06
1.89859e-06
1.90103e-06
1.90159e-06
1.90311e-06
1.90325e-06
1.90123e-06
1.89859e-06
1.89858e-06
1.89861e-06
1.89861e-06
1.89861e-06
1.89858e-06
1.89859e-06
1.90106e-06
1.90169e-06
1.90331e-06
1.90158e-06
1.89853e-06
1.89855e-06
1.89861e-06
1.89863e-06
1.89863e-06
1.89863e-06
1.89861e-06
1.89855e-06
1.89853e-06
1.9015e-06
1.90325e-06
1.90154e-06
1.89852e-06
1.89856e-06
1.89861e-06
1.89863e-06
1.89864e-06
1.89863e-06
1.89861e-06
1.89856e-06
1.89851e-06
1.90136e-06
1.90315e-06
1.90156e-06
1.89853e-06
1.89855e-06
1.89861e-06
1.89863e-06
1.89863e-06
1.89863e-06
1.89861e-06
1.89855e-06
1.89853e-06
1.90142e-06
1.90315e-06
1.90302e-06
1.90116e-06
1.89859e-06
1.89858e-06
1.89861e-06
1.89861e-06
1.89861e-06
1.89858e-06
1.89859e-06
1.9009e-06
1.90161e-06
1.90331e-06
1.90325e-06
1.90161e-06
1.90103e-06
1.89859e-06
1.89855e-06
1.89856e-06
1.89855e-06
1.89859e-06
1.90083e-06
1.90141e-06
1.90183e-06
1.9031e-06
1.90159e-06
1.90106e-06
1.89853e-06
1.89851e-06
1.89853e-06
1.90089e-06
1.90141e-06
1.90181e-06
1.90333e-06
1.90311e-06
1.90169e-06
1.9015e-06
1.90136e-06
1.90142e-06
1.90161e-06
1.90183e-06
1.90332e-06
1.90331e-06
1.90325e-06
1.90315e-06
1.90315e-06
1.90331e-06
1.88705e-06
1.88535e-06
1.88529e-06
1.88532e-06
1.88681e-06
1.88705e-06
1.88718e-06
1.88558e-06
1.88497e-06
1.88219e-06
1.88219e-06
1.88219e-06
1.8849e-06
1.8854e-06
1.8869e-06
1.88558e-06
1.88493e-06
1.88223e-06
1.88222e-06
1.88223e-06
1.88222e-06
1.88223e-06
1.8848e-06
1.88537e-06
1.88692e-06
1.88705e-06
1.88497e-06
1.88223e-06
1.88224e-06
1.88227e-06
1.88227e-06
1.88226e-06
1.88224e-06
1.88223e-06
1.88481e-06
1.88548e-06
1.88711e-06
1.88535e-06
1.88219e-06
1.88222e-06
1.88227e-06
1.88229e-06
1.8823e-06
1.88229e-06
1.88227e-06
1.88222e-06
1.88219e-06
1.88528e-06
1.88704e-06
1.88529e-06
1.88219e-06
1.88223e-06
1.88227e-06
1.8823e-06
1.8823e-06
1.8823e-06
1.88227e-06
1.88223e-06
1.88219e-06
1.88518e-06
1.88694e-06
1.88532e-06
1.88219e-06
1.88222e-06
1.88227e-06
1.88229e-06
1.8823e-06
1.88229e-06
1.88226e-06
1.88222e-06
1.88219e-06
1.88522e-06
1.88694e-06
1.88681e-06
1.8849e-06
1.88223e-06
1.88224e-06
1.88227e-06
1.88227e-06
1.88226e-06
1.88224e-06
1.88223e-06
1.88467e-06
1.88539e-06
1.8871e-06
1.88705e-06
1.8854e-06
1.8848e-06
1.88223e-06
1.88222e-06
1.88223e-06
1.88222e-06
1.88223e-06
1.88462e-06
1.88518e-06
1.88563e-06
1.8869e-06
1.88537e-06
1.88481e-06
1.88219e-06
1.88219e-06
1.88219e-06
1.88467e-06
1.88518e-06
1.88559e-06
1.88715e-06
1.88692e-06
1.88548e-06
1.88528e-06
1.88518e-06
1.88522e-06
1.88539e-06
1.88563e-06
1.88715e-06
1.88711e-06
1.88704e-06
1.88694e-06
1.88694e-06
1.8871e-06
1.87082e-06
1.8691e-06
1.86904e-06
1.86907e-06
1.87058e-06
1.87082e-06
1.87095e-06
1.86934e-06
1.8687e-06
1.86591e-06
1.86591e-06
1.86591e-06
1.86864e-06
1.86917e-06
1.87067e-06
1.86934e-06
1.86866e-06
1.86593e-06
1.86593e-06
1.86594e-06
1.86593e-06
1.86593e-06
1.86854e-06
1.86914e-06
1.87069e-06
1.87082e-06
1.8687e-06
1.86593e-06
1.86594e-06
1.86596e-06
1.86597e-06
1.86596e-06
1.86594e-06
1.86593e-06
1.86856e-06
1.86925e-06
1.87088e-06
1.8691e-06
1.86591e-06
1.86593e-06
1.86596e-06
1.86598e-06
1.86599e-06
1.86598e-06
1.86596e-06
1.86593e-06
1.86591e-06
1.86904e-06
1.87081e-06
1.86904e-06
1.86591e-06
1.86594e-06
1.86597e-06
1.86599e-06
1.86599e-06
1.86599e-06
1.86597e-06
1.86593e-06
1.86591e-06
1.86895e-06
1.87071e-06
1.86907e-06
1.86591e-06
1.86593e-06
1.86596e-06
1.86598e-06
1.86599e-06
1.86598e-06
1.86596e-06
1.86593e-06
1.86591e-06
1.86898e-06
1.87071e-06
1.87058e-06
1.86864e-06
1.86593e-06
1.86594e-06
1.86596e-06
1.86597e-06
1.86596e-06
1.86594e-06
1.86593e-06
1.86843e-06
1.86916e-06
1.87087e-06
1.87082e-06
1.86917e-06
1.86854e-06
1.86593e-06
1.86593e-06
1.86594e-06
1.86593e-06
1.86593e-06
1.86839e-06
1.86895e-06
1.8694e-06
1.87067e-06
1.86914e-06
1.86856e-06
1.86591e-06
1.86591e-06
1.86591e-06
1.86843e-06
1.86895e-06
1.86936e-06
1.87092e-06
1.87069e-06
1.86925e-06
1.86904e-06
1.86895e-06
1.86898e-06
1.86916e-06
1.8694e-06
1.87092e-06
1.87088e-06
1.87081e-06
1.87071e-06
1.87071e-06
1.87087e-06
1.85458e-06
1.85286e-06
1.8528e-06
1.85283e-06
1.85434e-06
1.85458e-06
1.85471e-06
1.8531e-06
1.85245e-06
1.84965e-06
1.84965e-06
1.84965e-06
1.85239e-06
1.85292e-06
1.85443e-06
1.8531e-06
1.8524e-06
1.84966e-06
1.84966e-06
1.84967e-06
1.84966e-06
1.84966e-06
1.85229e-06
1.8529e-06
1.85445e-06
1.85458e-06
1.85245e-06
1.84966e-06
1.84967e-06
1.84968e-06
1.84969e-06
1.84968e-06
1.84967e-06
1.84966e-06
1.85231e-06
1.85301e-06
1.85465e-06
1.85286e-06
1.84965e-06
1.84966e-06
1.84968e-06
1.84969e-06
1.8497e-06
1.84969e-06
1.84968e-06
1.84966e-06
1.84965e-06
1.8528e-06
1.85457e-06
1.8528e-06
1.84965e-06
1.84967e-06
1.84969e-06
1.8497e-06
1.8497e-06
1.8497e-06
1.84969e-06
1.84966e-06
1.84965e-06
1.85271e-06
1.85447e-06
1.85283e-06
1.84965e-06
1.84966e-06
1.84968e-06
1.84969e-06
1.8497e-06
1.84969e-06
1.84968e-06
1.84966e-06
1.84965e-06
1.85274e-06
1.85447e-06
1.85434e-06
1.85239e-06
1.84966e-06
1.84967e-06
1.84968e-06
1.84969e-06
1.84968e-06
1.84967e-06
1.84966e-06
1.85219e-06
1.85292e-06
1.85463e-06
1.85458e-06
1.85292e-06
1.85229e-06
1.84966e-06
1.84966e-06
1.84966e-06
1.84966e-06
1.84966e-06
1.85215e-06
1.85271e-06
1.85316e-06
1.85443e-06
1.8529e-06
1.85231e-06
1.84965e-06
1.84965e-06
1.84965e-06
1.85219e-06
1.85271e-06
1.85312e-06
1.85468e-06
1.85445e-06
1.85301e-06
1.8528e-06
1.85271e-06
1.85274e-06
1.85292e-06
1.85316e-06
1.85468e-06
1.85465e-06
1.85457e-06
1.85447e-06
1.85447e-06
1.85463e-06
1.83834e-06
1.83662e-06
1.83655e-06
1.83659e-06
1.8381e-06
1.83834e-06
1.83847e-06
1.83686e-06
1.8362e-06
1.8334e-06
1.8334e-06
1.8334e-06
1.83614e-06
1.83668e-06
1.83819e-06
1.83686e-06
1.83615e-06
1.8334e-06
1.8334e-06
1.83341e-06
1.8334e-06
1.8334e-06
1.83604e-06
1.83666e-06
1.83821e-06
1.83834e-06
1.8362e-06
1.8334e-06
1.83341e-06
1.83342e-06
1.83342e-06
1.83342e-06
1.83341e-06
1.8334e-06
1.83606e-06
1.83677e-06
1.8384e-06
1.83662e-06
1.8334e-06
1.8334e-06
1.83342e-06
1.83342e-06
1.83343e-06
1.83342e-06
1.83342e-06
1.8334e-06
1.8334e-06
1.83656e-06
1.83833e-06
1.83655e-06
1.8334e-06
1.83341e-06
1.83342e-06
1.83343e-06
1.83343e-06
1.83343e-06
1.83342e-06
1.83341e-06
1.8334e-06
1.83646e-06
1.83823e-06
1.83659e-06
1.8334e-06
1.8334e-06
1.83342e-06
1.83342e-06
1.83343e-06
1.83342e-06
1.83342e-06
1.8334e-06
1.8334e-06
1.8365e-06
1.83823e-06
1.8381e-06
1.83614e-06
1.8334e-06
1.83341e-06
1.83342e-06
1.83342e-06
1.83342e-06
1.83341e-06
1.8334e-06
1.83595e-06
1.83668e-06
1.83839e-06
1.83834e-06
1.83668e-06
1.83604e-06
1.8334e-06
1.8334e-06
1.83341e-06
1.8334e-06
1.8334e-06
1.83591e-06
1.83646e-06
1.83691e-06
1.83819e-06
1.83666e-06
1.83606e-06
1.8334e-06
1.8334e-06
1.8334e-06
1.83594e-06
1.83646e-06
1.83688e-06
1.83844e-06
1.83821e-06
1.83677e-06
1.83656e-06
1.83646e-06
1.8365e-06
1.83668e-06
1.83691e-06
1.83844e-06
1.8384e-06
1.83833e-06
1.83822e-06
1.83823e-06
1.83839e-06
1.8221e-06
1.82037e-06
1.82031e-06
1.82034e-06
1.82186e-06
1.8221e-06
1.82223e-06
1.82061e-06
1.81996e-06
1.81715e-06
1.81715e-06
1.81715e-06
1.8199e-06
1.82044e-06
1.82195e-06
1.82061e-06
1.81991e-06
1.81715e-06
1.81715e-06
1.81716e-06
1.81715e-06
1.81715e-06
1.8198e-06
1.82041e-06
1.82197e-06
1.8221e-06
1.81996e-06
1.81715e-06
1.81716e-06
1.81716e-06
1.81716e-06
1.81716e-06
1.81716e-06
1.81715e-06
1.81982e-06
1.82053e-06
1.82216e-06
1.82037e-06
1.81715e-06
1.81715e-06
1.81716e-06
1.81717e-06
1.81717e-06
1.81717e-06
1.81716e-06
1.81715e-06
1.81715e-06
1.82032e-06
1.82209e-06
1.82031e-06
1.81715e-06
1.81716e-06
1.81716e-06
1.81717e-06
1.81717e-06
1.81717e-06
1.81716e-06
1.81716e-06
1.81715e-06
1.82022e-06
1.82198e-06
1.82034e-06
1.81715e-06
1.81715e-06
1.81716e-06
1.81717e-06
1.81717e-06
1.81717e-06
1.81716e-06
1.81715e-06
1.81715e-06
1.82026e-06
1.82199e-06
1.82186e-06
1.8199e-06
1.81715e-06
1.81716e-06
1.81716e-06
1.81716e-06
1.81716e-06
1.81716e-06
1.81715e-06
1.8197e-06
1.82043e-06
1.82215e-06
1.8221e-06
1.82044e-06
1.8198e-06
1.81715e-06
1.81715e-06
1.81716e-06
1.81715e-06
1.81715e-06
1.81967e-06
1.82022e-06
1.82067e-06
1.82195e-06
1.82041e-06
1.81982e-06
1.81715e-06
1.81715e-06
1.81715e-06
1.8197e-06
1.82022e-06
1.82063e-06
1.8222e-06
1.82197e-06
1.82053e-06
1.82032e-06
1.82022e-06
1.82026e-06
1.82043e-06
1.82067e-06
1.8222e-06
1.82216e-06
1.82209e-06
1.82198e-06
1.82199e-06
1.82215e-06
1.80586e-06
1.80413e-06
1.80407e-06
1.8041e-06
1.80561e-06
1.80586e-06
1.80598e-06
1.80437e-06
1.80371e-06
1.8009e-06
1.8009e-06
1.8009e-06
1.80365e-06
1.8042e-06
1.80571e-06
1.80437e-06
1.80366e-06
1.80091e-06
1.80091e-06
1.80091e-06
1.80091e-06
1.80091e-06
1.80355e-06
1.80417e-06
1.80572e-06
1.80586e-06
1.80371e-06
1.80091e-06
1.80091e-06
1.80091e-06
1.80091e-06
1.80091e-06
1.80091e-06
1.80091e-06
1.80357e-06
1.80428e-06
1.80592e-06
1.80413e-06
1.8009e-06
1.80091e-06
1.80091e-06
1.80091e-06
1.80091e-06
1.80091e-06
1.80091e-06
1.80091e-06
1.8009e-06
1.80407e-06
1.80585e-06
1.80407e-06
1.8009e-06
1.80091e-06
1.80091e-06
1.80091e-06
1.80092e-06
1.80091e-06
1.80091e-06
1.80091e-06
1.8009e-06
1.80398e-06
1.80574e-06
1.8041e-06
1.8009e-06
1.80091e-06
1.80091e-06
1.80091e-06
1.80091e-06
1.80091e-06
1.80091e-06
1.80091e-06
1.8009e-06
1.80401e-06
1.80574e-06
1.80561e-06
1.80365e-06
1.80091e-06
1.80091e-06
1.80091e-06
1.80091e-06
1.80091e-06
1.80091e-06
1.80091e-06
1.80346e-06
1.80419e-06
1.80591e-06
1.80586e-06
1.8042e-06
1.80355e-06
1.80091e-06
1.80091e-06
1.80091e-06
1.80091e-06
1.80091e-06
1.80342e-06
1.80398e-06
1.80443e-06
1.80571e-06
1.80417e-06
1.80357e-06
1.8009e-06
1.8009e-06
1.8009e-06
1.80346e-06
1.80398e-06
1.80439e-06
1.80596e-06
1.80572e-06
1.80428e-06
1.80407e-06
1.80398e-06
1.80401e-06
1.80419e-06
1.80443e-06
1.80595e-06
1.80592e-06
1.80585e-06
1.80574e-06
1.80574e-06
1.80591e-06
1.78961e-06
1.78789e-06
1.78782e-06
1.78786e-06
1.78937e-06
1.78961e-06
1.78974e-06
1.78813e-06
1.78747e-06
1.78466e-06
1.78466e-06
1.78466e-06
1.78741e-06
1.78795e-06
1.78946e-06
1.78813e-06
1.78742e-06
1.78466e-06
1.78466e-06
1.78466e-06
1.78466e-06
1.78466e-06
1.78731e-06
1.78793e-06
1.78948e-06
1.78961e-06
1.78747e-06
1.78466e-06
1.78466e-06
1.78466e-06
1.78466e-06
1.78466e-06
1.78466e-06
1.78466e-06
1.78733e-06
1.78804e-06
1.78968e-06
1.78789e-06
1.78466e-06
1.78466e-06
1.78466e-06
1.78467e-06
1.78467e-06
1.78466e-06
1.78466e-06
1.78466e-06
1.78466e-06
1.78783e-06
1.7896e-06
1.78782e-06
1.78466e-06
1.78466e-06
1.78466e-06
1.78467e-06
1.78467e-06
1.78467e-06
1.78466e-06
1.78466e-06
1.78466e-06
1.78773e-06
1.7895e-06
1.78786e-06
1.78466e-06
1.78466e-06
1.78466e-06
1.78466e-06
1.78467e-06
1.78466e-06
1.78466e-06
1.78466e-06
1.78466e-06
1.78777e-06
1.7895e-06
1.78937e-06
1.78741e-06
1.78466e-06
1.78466e-06
1.78466e-06
1.78466e-06
1.78466e-06
1.78466e-06
1.78466e-06
1.78721e-06
1.78795e-06
1.78966e-06
1.78961e-06
1.78795e-06
1.78731e-06
1.78466e-06
1.78466e-06
1.78466e-06
1.78466e-06
1.78466e-06
1.78718e-06
1.78773e-06
1.78818e-06
1.78946e-06
1.78793e-06
1.78733e-06
1.78466e-06
1.78466e-06
1.78466e-06
1.78721e-06
1.78773e-06
1.78815e-06
1.78971e-06
1.78948e-06
1.78804e-06
1.78783e-06
1.78773e-06
1.78777e-06
1.78795e-06
1.78819e-06
1.78971e-06
1.78968e-06
1.7896e-06
1.7895e-06
1.7895e-06
1.78966e-06
1.77337e-06
1.77164e-06
1.77158e-06
1.77161e-06
1.77313e-06
1.77337e-06
1.7735e-06
1.77189e-06
1.77123e-06
1.76842e-06
1.76842e-06
1.76842e-06
1.77117e-06
1.77171e-06
1.77322e-06
1.77188e-06
1.77118e-06
1.76842e-06
1.76842e-06
1.76842e-06
1.76842e-06
1.76842e-06
1.77107e-06
1.77168e-06
1.77324e-06
1.77337e-06
1.77123e-06
1.76842e-06
1.76842e-06
1.76842e-06
1.76842e-06
1.76842e-06
1.76842e-06
1.76842e-06
1.77109e-06
1.7718e-06
1.77343e-06
1.77164e-06
1.76842e-06
1.76842e-06
1.76842e-06
1.76842e-06
1.76842e-06
1.76842e-06
1.76842e-06
1.76842e-06
1.76842e-06
1.77159e-06
1.77336e-06
1.77158e-06
1.76842e-06
1.76842e-06
1.76842e-06
1.76842e-06
1.76842e-06
1.76842e-06
1.76842e-06
1.76842e-06
1.76842e-06
1.77149e-06
1.77325e-06
1.77161e-06
1.76842e-06
1.76842e-06
1.76842e-06
1.76842e-06
1.76842e-06
1.76842e-06
1.76842e-06
1.76842e-06
1.76842e-06
1.77153e-06
1.77326e-06
1.77313e-06
1.77117e-06
1.76842e-06
1.76842e-06
1.76842e-06
1.76842e-06
1.76842e-06
1.76842e-06
1.76842e-06
1.77097e-06
1.7717e-06
1.77342e-06
1.77337e-06
1.77171e-06
1.77107e-06
1.76842e-06
1.76842e-06
1.76842e-06
1.76842e-06
1.76842e-06
1.77094e-06
1.77149e-06
1.77194e-06
1.77322e-06
1.77168e-06
1.77109e-06
1.76842e-06
1.76842e-06
1.76842e-06
1.77097e-06
1.77149e-06
1.7719e-06
1.77347e-06
1.77324e-06
1.7718e-06
1.77159e-06
1.77149e-06
1.77153e-06
1.7717e-06
1.77194e-06
1.77347e-06
1.77343e-06
1.77336e-06
1.77325e-06
1.77326e-06
1.77342e-06
1.75713e-06
1.7554e-06
1.75534e-06
1.75537e-06
1.75688e-06
1.75713e-06
1.75725e-06
1.75564e-06
1.75498e-06
1.75217e-06
1.75217e-06
1.75217e-06
1.75492e-06
1.75547e-06
1.75698e-06
1.75564e-06
1.75493e-06
1.75217e-06
1.75217e-06
1.75217e-06
1.75217e-06
1.75217e-06
1.75482e-06
1.75544e-06
1.75699e-06
1.75713e-06
1.75498e-06
1.75217e-06
1.75217e-06
1.75217e-06
1.75217e-06
1.75217e-06
1.75217e-06
1.75217e-06
1.75484e-06
1.75555e-06
1.75719e-06
1.7554e-06
1.75217e-06
1.75217e-06
1.75217e-06
1.75217e-06
1.75217e-06
1.75217e-06
1.75217e-06
1.75217e-06
1.75217e-06
1.75534e-06
1.75712e-06
1.75534e-06
1.75217e-06
1.75217e-06
1.75217e-06
1.75217e-06
1.75217e-06
1.75217e-06
1.75217e-06
1.75217e-06
1.75217e-06
1.75525e-06
1.75701e-06
1.75537e-06
1.75217e-06
1.75217e-06
1.75217e-06
1.75217e-06
1.75217e-06
1.75217e-06
1.75217e-06
1.75217e-06
1.75217e-06
1.75528e-06
1.75702e-06
1.75688e-06
1.75492e-06
1.75217e-06
1.75217e-06
1.75217e-06
1.75217e-06
1.75217e-06
1.75217e-06
1.75217e-06
1.75473e-06
1.75546e-06
1.75718e-06
1.75713e-06
1.75547e-06
1.75482e-06
1.75217e-06
1.75217e-06
1.75217e-06
1.75217e-06
1.75217e-06
1.75469e-06
1.75525e-06
1.7557e-06
1.75698e-06
1.75544e-06
1.75484e-06
1.75217e-06
1.75217e-06
1.75217e-06
1.75473e-06
1.75525e-06
1.75566e-06
1.75723e-06
1.75699e-06
1.75555e-06
1.75534e-06
1.75525e-06
1.75528e-06
1.75546e-06
1.7557e-06
1.75723e-06
1.75719e-06
1.75712e-06
1.75701e-06
1.75702e-06
1.75718e-06
1.74088e-06
1.73916e-06
1.73909e-06
1.73913e-06
1.74064e-06
1.74089e-06
1.74101e-06
1.7394e-06
1.73874e-06
1.73593e-06
1.73593e-06
1.73593e-06
1.73868e-06
1.73922e-06
1.74073e-06
1.7394e-06
1.73869e-06
1.73593e-06
1.73593e-06
1.73593e-06
1.73593e-06
1.73593e-06
1.73858e-06
1.7392e-06
1.74075e-06
1.74088e-06
1.73874e-06
1.73593e-06
1.73593e-06
1.73593e-06
1.73593e-06
1.73593e-06
1.73593e-06
1.73593e-06
1.7386e-06
1.73931e-06
1.74095e-06
1.73916e-06
1.73593e-06
1.73593e-06
1.73593e-06
1.73593e-06
1.73593e-06
1.73593e-06
1.73593e-06
1.73593e-06
1.73593e-06
1.7391e-06
1.74087e-06
1.73909e-06
1.73593e-06
1.73593e-06
1.73593e-06
1.73593e-06
1.73593e-06
1.73593e-06
1.73593e-06
1.73593e-06
1.73593e-06
1.739e-06
1.74077e-06
1.73913e-06
1.73593e-06
1.73593e-06
1.73593e-06
1.73593e-06
1.73593e-06
1.73593e-06
1.73593e-06
1.73593e-06
1.73593e-06
1.73904e-06
1.74077e-06
1.74064e-06
1.73868e-06
1.73593e-06
1.73593e-06
1.73593e-06
1.73593e-06
1.73593e-06
1.73593e-06
1.73593e-06
1.73848e-06
1.73922e-06
1.74093e-06
1.74089e-06
1.73922e-06
1.73858e-06
1.73593e-06
1.73593e-06
1.73593e-06
1.73593e-06
1.73593e-06
1.73845e-06
1.739e-06
1.73946e-06
1.74073e-06
1.7392e-06
1.7386e-06
1.73593e-06
1.73593e-06
1.73593e-06
1.73848e-06
1.739e-06
1.73942e-06
1.74098e-06
1.74075e-06
1.73931e-06
1.7391e-06
1.739e-06
1.73904e-06
1.73922e-06
1.73946e-06
1.74098e-06
1.74095e-06
1.74087e-06
1.74077e-06
1.74077e-06
1.74093e-06
1.72464e-06
1.72291e-06
1.72285e-06
1.72288e-06
1.7244e-06
1.72464e-06
1.72477e-06
1.72316e-06
1.7225e-06
1.71969e-06
1.71969e-06
1.71969e-06
1.72244e-06
1.72298e-06
1.72449e-06
1.72316e-06
1.72244e-06
1.71969e-06
1.71969e-06
1.71969e-06
1.71969e-06
1.71969e-06
1.72234e-06
1.72295e-06
1.72451e-06
1.72464e-06
1.7225e-06
1.71969e-06
1.71969e-06
1.71969e-06
1.71969e-06
1.71969e-06
1.71969e-06
1.71969e-06
1.72236e-06
1.72307e-06
1.7247e-06
1.72291e-06
1.71969e-06
1.71969e-06
1.71969e-06
1.71969e-06
1.71969e-06
1.71969e-06
1.71969e-06
1.71969e-06
1.71969e-06
1.72286e-06
1.72463e-06
1.72285e-06
1.71969e-06
1.71969e-06
1.71969e-06
1.71969e-06
1.71969e-06
1.71969e-06
1.71969e-06
1.71969e-06
1.71969e-06
1.72276e-06
1.72452e-06
1.72288e-06
1.71969e-06
1.71969e-06
1.71969e-06
1.71969e-06
1.71969e-06
1.71969e-06
1.71969e-06
1.71969e-06
1.71969e-06
1.7228e-06
1.72453e-06
1.7244e-06
1.72244e-06
1.71969e-06
1.71969e-06
1.71969e-06
1.71969e-06
1.71969e-06
1.71969e-06
1.71969e-06
1.72224e-06
1.72297e-06
1.72469e-06
1.72464e-06
1.72298e-06
1.72234e-06
1.71969e-06
1.71969e-06
1.71969e-06
1.71969e-06
1.71969e-06
1.72221e-06
1.72276e-06
1.72321e-06
1.72449e-06
1.72295e-06
1.72236e-06
1.71969e-06
1.71969e-06
1.71969e-06
1.72224e-06
1.72276e-06
1.72317e-06
1.72474e-06
1.72451e-06
1.72307e-06
1.72286e-06
1.72276e-06
1.7228e-06
1.72297e-06
1.72321e-06
1.72474e-06
1.7247e-06
1.72463e-06
1.72452e-06
1.72453e-06
1.72469e-06
1.7084e-06
1.70667e-06
1.70661e-06
1.70664e-06
1.70815e-06
1.7084e-06
1.70852e-06
1.70691e-06
1.70625e-06
1.70344e-06
1.70344e-06
1.70344e-06
1.70619e-06
1.70674e-06
1.70825e-06
1.70691e-06
1.7062e-06
1.70344e-06
1.70344e-06
1.70344e-06
1.70344e-06
1.70344e-06
1.70609e-06
1.70671e-06
1.70826e-06
1.7084e-06
1.70625e-06
1.70344e-06
1.70344e-06
1.70344e-06
1.70344e-06
1.70344e-06
1.70344e-06
1.70344e-06
1.70611e-06
1.70683e-06
1.70846e-06
1.70667e-06
1.70344e-06
1.70344e-06
1.70344e-06
1.70344e-06
1.70344e-06
1.70344e-06
1.70344e-06
1.70344e-06
1.70344e-06
1.70661e-06
1.70839e-06
1.70661e-06
1.70344e-06
1.70344e-06
1.70344e-06
1.70344e-06
1.70344e-06
1.70344e-06
1.70344e-06
1.70344e-06
1.70344e-06
1.70652e-06
1.70828e-06
1.70664e-06
1.70344e-06
1.70344e-06
1.70344e-06
1.70344e-06
1.70344e-06
1.70344e-06
1.70344e-06
1.70344e-06
1.70344e-06
1.70655e-06
1.70829e-06
1.70815e-06
1.70619e-06
1.70344e-06
1.70344e-06
1.70344e-06
1.70344e-06
1.70344e-06
1.70344e-06
1.70344e-06
1.706e-06
1.70673e-06
1.70845e-06
1.7084e-06
1.70674e-06
1.70609e-06
1.70344e-06
1.70344e-06
1.70344e-06
1.70344e-06
1.70344e-06
1.70596e-06
1.70652e-06
1.70697e-06
1.70825e-06
1.70671e-06
1.70611e-06
1.70344e-06
1.70344e-06
1.70344e-06
1.706e-06
1.70652e-06
1.70693e-06
1.7085e-06
1.70826e-06
1.70683e-06
1.70661e-06
1.70652e-06
1.70655e-06
1.70673e-06
1.70697e-06
1.7085e-06
1.70846e-06
1.70839e-06
1.70828e-06
1.70829e-06
1.70845e-06
1.69215e-06
1.69043e-06
1.69036e-06
1.6904e-06
1.69191e-06
1.69216e-06
1.69228e-06
1.69067e-06
1.69001e-06
1.6872e-06
1.6872e-06
1.6872e-06
1.68995e-06
1.69049e-06
1.692e-06
1.69067e-06
1.68996e-06
1.6872e-06
1.6872e-06
1.6872e-06
1.6872e-06
1.6872e-06
1.68985e-06
1.69047e-06
1.69202e-06
1.69215e-06
1.69001e-06
1.6872e-06
1.6872e-06
1.6872e-06
1.6872e-06
1.6872e-06
1.6872e-06
1.6872e-06
1.68987e-06
1.69058e-06
1.69222e-06
1.69043e-06
1.6872e-06
1.6872e-06
1.6872e-06
1.6872e-06
1.6872e-06
1.6872e-06
1.6872e-06
1.6872e-06
1.6872e-06
1.69037e-06
1.69214e-06
1.69036e-06
1.6872e-06
1.6872e-06
1.6872e-06
1.6872e-06
1.6872e-06
1.6872e-06
1.6872e-06
1.6872e-06
1.6872e-06
1.69027e-06
1.69204e-06
1.6904e-06
1.6872e-06
1.6872e-06
1.6872e-06
1.6872e-06
1.6872e-06
1.6872e-06
1.6872e-06
1.6872e-06
1.6872e-06
1.69031e-06
1.69204e-06
1.69191e-06
1.68995e-06
1.6872e-06
1.6872e-06
1.6872e-06
1.6872e-06
1.6872e-06
1.6872e-06
1.6872e-06
1.68975e-06
1.69049e-06
1.6922e-06
1.69216e-06
1.69049e-06
1.68985e-06
1.6872e-06
1.6872e-06
1.6872e-06
1.6872e-06
1.6872e-06
1.68972e-06
1.69027e-06
1.69073e-06
1.692e-06
1.69047e-06
1.68987e-06
1.6872e-06
1.6872e-06
1.6872e-06
1.68975e-06
1.69027e-06
1.69069e-06
1.69225e-06
1.69202e-06
1.69058e-06
1.69037e-06
1.69027e-06
1.69031e-06
1.69049e-06
1.69073e-06
1.69225e-06
1.69222e-06
1.69214e-06
1.69204e-06
1.69204e-06
1.6922e-06
1.67591e-06
1.67418e-06
1.67412e-06
1.67415e-06
1.67567e-06
1.67591e-06
1.67604e-06
1.67443e-06
1.67377e-06
1.67096e-06
1.67096e-06
1.67096e-06
1.67371e-06
1.67425e-06
1.67576e-06
1.67443e-06
1.67371e-06
1.67096e-06
1.67096e-06
1.67096e-06
1.67096e-06
1.67096e-06
1.67361e-06
1.67422e-06
1.67578e-06
1.67591e-06
1.67377e-06
1.67096e-06
1.67096e-06
1.67096e-06
1.67096e-06
1.67096e-06
1.67096e-06
1.67096e-06
1.67363e-06
1.67434e-06
1.67597e-06
1.67418e-06
1.67096e-06
1.67096e-06
1.67096e-06
1.67096e-06
1.67096e-06
1.67096e-06
1.67096e-06
1.67096e-06
1.67096e-06
1.67413e-06
1.6759e-06
1.67412e-06
1.67096e-06
1.67096e-06
1.67096e-06
1.67096e-06
1.67096e-06
1.67096e-06
1.67096e-06
1.67096e-06
1.67096e-06
1.67403e-06
1.67579e-06
1.67415e-06
1.67096e-06
1.67096e-06
1.67096e-06
1.67096e-06
1.67096e-06
1.67096e-06
1.67096e-06
1.67096e-06
1.67096e-06
1.67407e-06
1.6758e-06
1.67567e-06
1.67371e-06
1.67096e-06
1.67096e-06
1.67096e-06
1.67096e-06
1.67096e-06
1.67096e-06
1.67096e-06
1.67351e-06
1.67424e-06
1.67596e-06
1.67591e-06
1.67425e-06
1.67361e-06
1.67096e-06
1.67096e-06
1.67096e-06
1.67096e-06
1.67096e-06
1.67348e-06
1.67403e-06
1.67448e-06
1.67576e-06
1.67422e-06
1.67363e-06
1.67096e-06
1.67096e-06
1.67096e-06
1.67351e-06
1.67403e-06
1.67444e-06
1.67601e-06
1.67578e-06
1.67434e-06
1.67413e-06
1.67403e-06
1.67407e-06
1.67424e-06
1.67448e-06
1.67601e-06
1.67597e-06
1.6759e-06
1.67579e-06
1.6758e-06
1.67596e-06
1.65967e-06
1.65794e-06
1.65788e-06
1.65791e-06
1.65942e-06
1.65967e-06
1.65979e-06
1.65818e-06
1.65752e-06
1.65471e-06
1.65471e-06
1.65471e-06
1.65746e-06
1.65801e-06
1.65952e-06
1.65818e-06
1.65747e-06
1.65471e-06
1.65471e-06
1.65471e-06
1.65471e-06
1.65471e-06
1.65736e-06
1.65798e-06
1.65953e-06
1.65967e-06
1.65752e-06
1.65471e-06
1.65471e-06
1.65471e-06
1.65471e-06
1.65471e-06
1.65471e-06
1.65471e-06
1.65738e-06
1.6581e-06
1.65973e-06
1.65794e-06
1.65471e-06
1.65471e-06
1.65471e-06
1.65471e-06
1.65471e-06
1.65471e-06
1.65471e-06
1.65471e-06
1.65471e-06
1.65788e-06
1.65966e-06
1.65788e-06
1.65471e-06
1.65471e-06
1.65471e-06
1.65471e-06
1.65471e-06
1.65471e-06
1.65471e-06
1.65471e-06
1.65471e-06
1.65779e-06
1.65955e-06
1.65791e-06
1.65471e-06
1.65471e-06
1.65471e-06
1.65471e-06
1.65471e-06
1.65471e-06
1.65471e-06
1.65471e-06
1.65471e-06
1.65782e-06
1.65956e-06
1.65942e-06
1.65746e-06
1.65471e-06
1.65471e-06
1.65471e-06
1.65471e-06
1.65471e-06
1.65471e-06
1.65471e-06
1.65727e-06
1.658e-06
1.65972e-06
1.65967e-06
1.65801e-06
1.65736e-06
1.65471e-06
1.65471e-06
1.65471e-06
1.65471e-06
1.65471e-06
1.65723e-06
1.65779e-06
1.65824e-06
1.65952e-06
1.65798e-06
1.65738e-06
1.65471e-06
1.65471e-06
1.65471e-06
1.65727e-06
1.65779e-06
1.6582e-06
1.65977e-06
1.65953e-06
1.6581e-06
1.65788e-06
1.65779e-06
1.65782e-06
1.658e-06
1.65824e-06
1.65977e-06
1.65973e-06
1.65966e-06
1.65955e-06
1.65956e-06
1.65972e-06
1.64342e-06
1.6417e-06
1.64163e-06
1.64167e-06
1.64318e-06
1.64343e-06
1.64355e-06
1.64194e-06
1.64128e-06
1.63847e-06
1.63847e-06
1.63847e-06
1.64122e-06
1.64176e-06
1.64327e-06
1.64194e-06
1.64123e-06
1.63847e-06
1.63847e-06
1.63847e-06
1.63847e-06
1.63847e-06
1.64112e-06
1.64174e-06
1.64329e-06
1.64342e-06
1.64128e-06
1.63847e-06
1.63847e-06
1.63847e-06
1.63847e-06
1.63847e-06
1.63847e-06
1.63847e-06
1.64114e-06
1.64185e-06
1.64349e-06
1.6417e-06
1.63847e-06
1.63847e-06
1.63847e-06
1.63847e-06
1.63847e-06
1.63847e-06
1.63847e-06
1.63847e-06
1.63847e-06
1.64164e-06
1.64341e-06
1.64163e-06
1.63847e-06
1.63847e-06
1.63847e-06
1.63847e-06
1.63847e-06
1.63847e-06
1.63847e-06
1.63847e-06
1.63847e-06
1.64154e-06
1.64331e-06
1.64167e-06
1.63847e-06
1.63847e-06
1.63847e-06
1.63847e-06
1.63847e-06
1.63847e-06
1.63847e-06
1.63847e-06
1.63847e-06
1.64158e-06
1.64331e-06
1.64318e-06
1.64122e-06
1.63847e-06
1.63847e-06
1.63847e-06
1.63847e-06
1.63847e-06
1.63847e-06
1.63847e-06
1.64103e-06
1.64176e-06
1.64347e-06
1.64343e-06
1.64176e-06
1.64112e-06
1.63847e-06
1.63847e-06
1.63847e-06
1.63847e-06
1.63847e-06
1.64099e-06
1.64154e-06
1.642e-06
1.64327e-06
1.64174e-06
1.64114e-06
1.63847e-06
1.63847e-06
1.63847e-06
1.64102e-06
1.64154e-06
1.64196e-06
1.64352e-06
1.64329e-06
1.64185e-06
1.64164e-06
1.64154e-06
1.64158e-06
1.64176e-06
1.642e-06
1.64352e-06
1.64349e-06
1.64341e-06
1.64331e-06
1.64331e-06
1.64347e-06
1.62718e-06
1.62545e-06
1.62539e-06
1.62542e-06
1.62694e-06
1.62718e-06
1.62731e-06
1.6257e-06
1.62504e-06
1.62223e-06
1.62223e-06
1.62223e-06
1.62498e-06
1.62552e-06
1.62703e-06
1.6257e-06
1.62498e-06
1.62223e-06
1.62223e-06
1.62223e-06
1.62223e-06
1.62223e-06
1.62488e-06
1.62549e-06
1.62705e-06
1.62718e-06
1.62504e-06
1.62223e-06
1.62223e-06
1.62223e-06
1.62223e-06
1.62223e-06
1.62223e-06
1.62223e-06
1.6249e-06
1.62561e-06
1.62724e-06
1.62545e-06
1.62223e-06
1.62223e-06
1.62223e-06
1.62223e-06
1.62223e-06
1.62223e-06
1.62223e-06
1.62223e-06
1.62223e-06
1.6254e-06
1.62717e-06
1.62539e-06
1.62223e-06
1.62223e-06
1.62223e-06
1.62223e-06
1.62223e-06
1.62223e-06
1.62223e-06
1.62223e-06
1.62223e-06
1.6253e-06
1.62706e-06
1.62542e-06
1.62223e-06
1.62223e-06
1.62223e-06
1.62223e-06
1.62223e-06
1.62223e-06
1.62223e-06
1.62223e-06
1.62223e-06
1.62534e-06
1.62707e-06
1.62694e-06
1.62498e-06
1.62223e-06
1.62223e-06
1.62223e-06
1.62223e-06
1.62223e-06
1.62223e-06
1.62223e-06
1.62478e-06
1.62551e-06
1.62723e-06
1.62718e-06
1.62552e-06
1.62488e-06
1.62223e-06
1.62223e-06
1.62223e-06
1.62223e-06
1.62223e-06
1.62475e-06
1.6253e-06
1.62575e-06
1.62703e-06
1.62549e-06
1.6249e-06
1.62223e-06
1.62223e-06
1.62223e-06
1.62478e-06
1.6253e-06
1.62571e-06
1.62728e-06
1.62705e-06
1.62561e-06
1.6254e-06
1.6253e-06
1.62534e-06
1.62551e-06
1.62575e-06
1.62728e-06
1.62724e-06
1.62717e-06
1.62706e-06
1.62707e-06
1.62723e-06
1.61094e-06
1.60921e-06
1.60915e-06
1.60918e-06
1.61069e-06
1.61094e-06
1.61106e-06
1.60945e-06
1.60879e-06
1.60598e-06
1.60598e-06
1.60598e-06
1.60873e-06
1.60928e-06
1.61079e-06
1.60945e-06
1.60874e-06
1.60598e-06
1.60598e-06
1.60598e-06
1.60598e-06
1.60598e-06
1.60863e-06
1.60925e-06
1.6108e-06
1.61094e-06
1.60879e-06
1.60598e-06
1.60598e-06
1.60598e-06
1.60598e-06
1.60598e-06
1.60598e-06
1.60598e-06
1.60865e-06
1.60937e-06
1.611e-06
1.60921e-06
1.60598e-06
1.60598e-06
1.60598e-06
1.60598e-06
1.60598e-06
1.60598e-06
1.60598e-06
1.60598e-06
1.60598e-06
1.60915e-06
1.61093e-06
1.60915e-06
1.60598e-06
1.60598e-06
1.60598e-06
1.60598e-06
1.60598e-06
1.60598e-06
1.60598e-06
1.60598e-06
1.60598e-06
1.60906e-06
1.61082e-06
1.60918e-06
1.60598e-06
1.60598e-06
1.60598e-06
1.60598e-06
1.60598e-06
1.60598e-06
1.60598e-06
1.60598e-06