/*--------------------------------*- C++ -*----------------------------------*\
| =========                 |                                                 |
| \\      /  F ield         | OpenFOAM: The Open Source CFD Toolbox           |
|  \\    /   O peration     | Version:  v2012                                 |
|   \\  /    A nd           | Website:  www.openfoam.com                      |
|    \\/     M anipulation  |                                                 |
\*---------------------------------------------------------------------------*/
FoamFile
{
    version     2.0;
    format      ascii;
    class       volScalarField;
    location    "52";
    object      p;
}
// * * * * * * * * * * * * * * * * * * * * * * * * * * * * * * * * * * * * * //

dimensions      [0 2 -2 0 0 0 0];


internalField   nonuniform List<scalar> 
292667
(
1.17987e-06
1.17052e-06
1.16977e-06
1.16984e-06
1.17086e-06
1.18078e-06
1.17073e-06
1.16813e-06
1.1666e-06
1.16598e-06
1.16606e-06
1.16687e-06
1.16863e-06
1.17147e-06
1.17073e-06
1.16737e-06
1.16527e-06
1.16411e-06
1.16362e-06
1.16369e-06
1.16432e-06
1.16566e-06
1.16803e-06
1.17168e-06
1.17987e-06
1.16813e-06
1.16527e-06
1.16357e-06
1.16262e-06
1.16221e-06
1.16226e-06
1.16279e-06
1.1639e-06
1.16583e-06
1.16903e-06
1.17949e-06
1.17052e-06
1.1666e-06
1.16411e-06
1.16262e-06
1.16177e-06
1.1614e-06
1.16145e-06
1.16193e-06
1.16291e-06
1.16461e-06
1.16744e-06
1.17412e-06
1.16977e-06
1.16598e-06
1.16362e-06
1.16221e-06
1.1614e-06
1.16105e-06
1.1611e-06
1.16155e-06
1.16249e-06
1.1641e-06
1.16678e-06
1.17248e-06
1.16984e-06
1.16606e-06
1.16369e-06
1.16226e-06
1.16145e-06
1.1611e-06
1.16115e-06
1.16161e-06
1.16255e-06
1.16418e-06
1.16688e-06
1.1728e-06
1.17086e-06
1.16687e-06
1.16432e-06
1.16279e-06
1.16193e-06
1.16155e-06
1.16161e-06
1.16209e-06
1.1631e-06
1.16484e-06
1.16775e-06
1.17443e-06
1.18078e-06
1.16863e-06
1.16566e-06
1.1639e-06
1.16291e-06
1.16249e-06
1.16255e-06
1.1631e-06
1.16425e-06
1.16628e-06
1.16959e-06
1.17939e-06
1.17147e-06
1.16803e-06
1.16583e-06
1.16461e-06
1.1641e-06
1.16418e-06
1.16484e-06
1.16628e-06
1.16878e-06
1.17508e-06
1.17168e-06
1.16903e-06
1.16744e-06
1.16678e-06
1.16688e-06
1.16775e-06
1.16959e-06
1.17508e-06
1.17949e-06
1.17412e-06
1.17248e-06
1.1728e-06
1.17443e-06
1.17939e-06
1.1537e-06
1.15287e-06
1.15284e-06
1.15288e-06
1.15369e-06
1.15358e-06
1.15375e-06
1.1531e-06
1.15272e-06
1.15136e-06
1.15134e-06
1.15136e-06
1.15288e-06
1.15314e-06
1.15377e-06
1.1531e-06
1.15271e-06
1.1514e-06
1.15135e-06
1.1514e-06
1.15135e-06
1.15141e-06
1.15286e-06
1.15312e-06
1.15375e-06
1.1537e-06
1.15272e-06
1.1514e-06
1.15134e-06
1.15138e-06
1.15136e-06
1.15138e-06
1.15134e-06
1.15141e-06
1.15285e-06
1.15314e-06
1.15381e-06
1.15287e-06
1.15136e-06
1.15135e-06
1.15138e-06
1.15134e-06
1.15134e-06
1.15134e-06
1.15138e-06
1.15135e-06
1.15136e-06
1.15328e-06
1.15394e-06
1.15284e-06
1.15134e-06
1.1514e-06
1.15136e-06
1.15134e-06
1.15133e-06
1.15134e-06
1.15136e-06
1.1514e-06
1.15134e-06
1.1533e-06
1.15385e-06
1.15288e-06
1.15136e-06
1.15135e-06
1.15138e-06
1.15134e-06
1.15134e-06
1.15134e-06
1.15138e-06
1.15135e-06
1.15136e-06
1.1533e-06
1.15387e-06
1.15369e-06
1.15288e-06
1.15141e-06
1.15134e-06
1.15138e-06
1.15136e-06
1.15138e-06
1.15134e-06
1.15141e-06
1.15303e-06
1.1532e-06
1.15391e-06
1.15358e-06
1.15314e-06
1.15286e-06
1.15141e-06
1.15135e-06
1.1514e-06
1.15135e-06
1.15141e-06
1.153e-06
1.15316e-06
1.15318e-06
1.15377e-06
1.15312e-06
1.15285e-06
1.15136e-06
1.15134e-06
1.15136e-06
1.15303e-06
1.15316e-06
1.15323e-06
1.15388e-06
1.15375e-06
1.15314e-06
1.15328e-06
1.1533e-06
1.1533e-06
1.1532e-06
1.15318e-06
1.15388e-06
1.15381e-06
1.15394e-06
1.15385e-06
1.15387e-06
1.15391e-06
1.14389e-06
1.14304e-06
1.14298e-06
1.14303e-06
1.14387e-06
1.14392e-06
1.14392e-06
1.14317e-06
1.14273e-06
1.14141e-06
1.1414e-06
1.14141e-06
1.14289e-06
1.1432e-06
1.1439e-06
1.14317e-06
1.14272e-06
1.14145e-06
1.14145e-06
1.14149e-06
1.14145e-06
1.14145e-06
1.14289e-06
1.1432e-06
1.1439e-06
1.14389e-06
1.14273e-06
1.14145e-06
1.14147e-06
1.14152e-06
1.14152e-06
1.14152e-06
1.14147e-06
1.14145e-06
1.1429e-06
1.14325e-06
1.14394e-06
1.14304e-06
1.14141e-06
1.14145e-06
1.14152e-06
1.14153e-06
1.14155e-06
1.14153e-06
1.14152e-06
1.14145e-06
1.14141e-06
1.1433e-06
1.14407e-06
1.14298e-06
1.1414e-06
1.14149e-06
1.14152e-06
1.14155e-06
1.14155e-06
1.14155e-06
1.14152e-06
1.14149e-06
1.1414e-06
1.1433e-06
1.14408e-06
1.14303e-06
1.14141e-06
1.14145e-06
1.14152e-06
1.14153e-06
1.14155e-06
1.14153e-06
1.14152e-06
1.14145e-06
1.14141e-06
1.1433e-06
1.14408e-06
1.14387e-06
1.14289e-06
1.14145e-06
1.14147e-06
1.14152e-06
1.14152e-06
1.14152e-06
1.14147e-06
1.14145e-06
1.14309e-06
1.14329e-06
1.14407e-06
1.14392e-06
1.1432e-06
1.14289e-06
1.14145e-06
1.14145e-06
1.14149e-06
1.14145e-06
1.14145e-06
1.14307e-06
1.14323e-06
1.14333e-06
1.1439e-06
1.1432e-06
1.1429e-06
1.14141e-06
1.1414e-06
1.14141e-06
1.14309e-06
1.14323e-06
1.14331e-06
1.14405e-06
1.1439e-06
1.14325e-06
1.1433e-06
1.1433e-06
1.1433e-06
1.14329e-06
1.14333e-06
1.14405e-06
1.14394e-06
1.14407e-06
1.14408e-06
1.14408e-06
1.14407e-06
1.13411e-06
1.13325e-06
1.13319e-06
1.13323e-06
1.13409e-06
1.13414e-06
1.13414e-06
1.13338e-06
1.13292e-06
1.13157e-06
1.13157e-06
1.13157e-06
1.13307e-06
1.13339e-06
1.13412e-06
1.13338e-06
1.13289e-06
1.1316e-06
1.13161e-06
1.13163e-06
1.13161e-06
1.1316e-06
1.13305e-06
1.13339e-06
1.13412e-06
1.13411e-06
1.13292e-06
1.1316e-06
1.13162e-06
1.13165e-06
1.13166e-06
1.13165e-06
1.13162e-06
1.1316e-06
1.13307e-06
1.13346e-06
1.13416e-06
1.13325e-06
1.13157e-06
1.13161e-06
1.13165e-06
1.13167e-06
1.13169e-06
1.13167e-06
1.13165e-06
1.13161e-06
1.13157e-06
1.1335e-06
1.13429e-06
1.13319e-06
1.13157e-06
1.13163e-06
1.13166e-06
1.13169e-06
1.13169e-06
1.13169e-06
1.13166e-06
1.13163e-06
1.13157e-06
1.13349e-06
1.1343e-06
1.13323e-06
1.13157e-06
1.13161e-06
1.13165e-06
1.13167e-06
1.13169e-06
1.13167e-06
1.13165e-06
1.13161e-06
1.13157e-06
1.13349e-06
1.1343e-06
1.13409e-06
1.13307e-06
1.1316e-06
1.13162e-06
1.13165e-06
1.13166e-06
1.13165e-06
1.13162e-06
1.1316e-06
1.13327e-06
1.1335e-06
1.13429e-06
1.13414e-06
1.13339e-06
1.13305e-06
1.1316e-06
1.13161e-06
1.13163e-06
1.13161e-06
1.1316e-06
1.13325e-06
1.13342e-06
1.13355e-06
1.13412e-06
1.13339e-06
1.13307e-06
1.13157e-06
1.13157e-06
1.13157e-06
1.13327e-06
1.13342e-06
1.13353e-06
1.13427e-06
1.13412e-06
1.13346e-06
1.1335e-06
1.13349e-06
1.13349e-06
1.1335e-06
1.13355e-06
1.13427e-06
1.13416e-06
1.13429e-06
1.1343e-06
1.1343e-06
1.13429e-06
1.12433e-06
1.12347e-06
1.1234e-06
1.12345e-06
1.12431e-06
1.12436e-06
1.12436e-06
1.12359e-06
1.12312e-06
1.12177e-06
1.12177e-06
1.12177e-06
1.12327e-06
1.1236e-06
1.12434e-06
1.12359e-06
1.12309e-06
1.12178e-06
1.12179e-06
1.1218e-06
1.12179e-06
1.12178e-06
1.12325e-06
1.1236e-06
1.12434e-06
1.12433e-06
1.12312e-06
1.12178e-06
1.1218e-06
1.12182e-06
1.12182e-06
1.12182e-06
1.1218e-06
1.12178e-06
1.12327e-06
1.12368e-06
1.12438e-06
1.12347e-06
1.12177e-06
1.12179e-06
1.12182e-06
1.12183e-06
1.12184e-06
1.12183e-06
1.12182e-06
1.12179e-06
1.12177e-06
1.12371e-06
1.12451e-06
1.1234e-06
1.12177e-06
1.1218e-06
1.12182e-06
1.12184e-06
1.12184e-06
1.12184e-06
1.12182e-06
1.1218e-06
1.12177e-06
1.1237e-06
1.12452e-06
1.12345e-06
1.12177e-06
1.12179e-06
1.12182e-06
1.12183e-06
1.12184e-06
1.12183e-06
1.12182e-06
1.12179e-06
1.12177e-06
1.12371e-06
1.12452e-06
1.12431e-06
1.12327e-06
1.12178e-06
1.1218e-06
1.12182e-06
1.12182e-06
1.12182e-06
1.1218e-06
1.12178e-06
1.12348e-06
1.12372e-06
1.12451e-06
1.12436e-06
1.1236e-06
1.12325e-06
1.12178e-06
1.12179e-06
1.1218e-06
1.12179e-06
1.12178e-06
1.12345e-06
1.12363e-06
1.12377e-06
1.12434e-06
1.1236e-06
1.12327e-06
1.12177e-06
1.12177e-06
1.12177e-06
1.12348e-06
1.12364e-06
1.12375e-06
1.12449e-06
1.12434e-06
1.12368e-06
1.12371e-06
1.1237e-06
1.12371e-06
1.12372e-06
1.12377e-06
1.12449e-06
1.12438e-06
1.12451e-06
1.12452e-06
1.12452e-06
1.12451e-06
1.11455e-06
1.11368e-06
1.11362e-06
1.11366e-06
1.11453e-06
1.11458e-06
1.11458e-06
1.11381e-06
1.11334e-06
1.11197e-06
1.11198e-06
1.11197e-06
1.11348e-06
1.11381e-06
1.11456e-06
1.11381e-06
1.1133e-06
1.11198e-06
1.11199e-06
1.11199e-06
1.11199e-06
1.11198e-06
1.11346e-06
1.11381e-06
1.11456e-06
1.11455e-06
1.11334e-06
1.11198e-06
1.11199e-06
1.112e-06
1.112e-06
1.112e-06
1.11199e-06
1.11198e-06
1.11348e-06
1.11389e-06
1.1146e-06
1.11368e-06
1.11197e-06
1.11199e-06
1.112e-06
1.11201e-06
1.11202e-06
1.11201e-06
1.112e-06
1.11199e-06
1.11197e-06
1.11393e-06
1.11473e-06
1.11362e-06
1.11198e-06
1.11199e-06
1.112e-06
1.11202e-06
1.11202e-06
1.11202e-06
1.112e-06
1.11199e-06
1.11198e-06
1.11391e-06
1.11474e-06
1.11366e-06
1.11197e-06
1.11199e-06
1.112e-06
1.11201e-06
1.11202e-06
1.11201e-06
1.112e-06
1.11199e-06
1.11197e-06
1.11392e-06
1.11474e-06
1.11453e-06
1.11348e-06
1.11198e-06
1.11199e-06
1.112e-06
1.112e-06
1.112e-06
1.11199e-06
1.11198e-06
1.11369e-06
1.11393e-06
1.11473e-06
1.11458e-06
1.11381e-06
1.11346e-06
1.11198e-06
1.11199e-06
1.11199e-06
1.11199e-06
1.11198e-06
1.11366e-06
1.11385e-06
1.11399e-06
1.11456e-06
1.11381e-06
1.11348e-06
1.11197e-06
1.11198e-06
1.11197e-06
1.11369e-06
1.11385e-06
1.11396e-06
1.11471e-06
1.11456e-06
1.11389e-06
1.11393e-06
1.11391e-06
1.11392e-06
1.11393e-06
1.11399e-06
1.11471e-06
1.1146e-06
1.11473e-06
1.11474e-06
1.11474e-06
1.11473e-06
1.10476e-06
1.1039e-06
1.10383e-06
1.10388e-06
1.10475e-06
1.10479e-06
1.10479e-06
1.10402e-06
1.10355e-06
1.10219e-06
1.10219e-06
1.10219e-06
1.1037e-06
1.10403e-06
1.10477e-06
1.10402e-06
1.10352e-06
1.10219e-06
1.10219e-06
1.1022e-06
1.10219e-06
1.10219e-06
1.10367e-06
1.10403e-06
1.10478e-06
1.10476e-06
1.10355e-06
1.10219e-06
1.1022e-06
1.1022e-06
1.1022e-06
1.1022e-06
1.1022e-06
1.10219e-06
1.1037e-06
1.10411e-06
1.10481e-06
1.1039e-06
1.10219e-06
1.10219e-06
1.1022e-06
1.10221e-06
1.10221e-06
1.10221e-06
1.1022e-06
1.10219e-06
1.10219e-06
1.10414e-06
1.10494e-06
1.10383e-06
1.10219e-06
1.1022e-06
1.1022e-06
1.10221e-06
1.10221e-06
1.10221e-06
1.1022e-06
1.1022e-06
1.10219e-06
1.10413e-06
1.10495e-06
1.10388e-06
1.10219e-06
1.10219e-06
1.1022e-06
1.10221e-06
1.10221e-06
1.10221e-06
1.1022e-06
1.10219e-06
1.10219e-06
1.10413e-06
1.10495e-06
1.10475e-06
1.1037e-06
1.10219e-06
1.1022e-06
1.1022e-06
1.1022e-06
1.1022e-06
1.1022e-06
1.10219e-06
1.1039e-06
1.10415e-06
1.10494e-06
1.10479e-06
1.10403e-06
1.10367e-06
1.10219e-06
1.10219e-06
1.1022e-06
1.10219e-06
1.10219e-06
1.10387e-06
1.10406e-06
1.10421e-06
1.10477e-06
1.10403e-06
1.1037e-06
1.10219e-06
1.10219e-06
1.10219e-06
1.1039e-06
1.10406e-06
1.10418e-06
1.10493e-06
1.10478e-06
1.10411e-06
1.10414e-06
1.10413e-06
1.10413e-06
1.10415e-06
1.10421e-06
1.10493e-06
1.10481e-06
1.10494e-06
1.10495e-06
1.10495e-06
1.10494e-06
1.09498e-06
1.09411e-06
1.09404e-06
1.09409e-06
1.09496e-06
1.09501e-06
1.09501e-06
1.09424e-06
1.09376e-06
1.0924e-06
1.0924e-06
1.0924e-06
1.09391e-06
1.09424e-06
1.09499e-06
1.09424e-06
1.09373e-06
1.0924e-06
1.0924e-06
1.0924e-06
1.0924e-06
1.0924e-06
1.09389e-06
1.09424e-06
1.09499e-06
1.09498e-06
1.09376e-06
1.0924e-06
1.0924e-06
1.09241e-06
1.09241e-06
1.09241e-06
1.0924e-06
1.0924e-06
1.09391e-06
1.09432e-06
1.09503e-06
1.09411e-06
1.0924e-06
1.0924e-06
1.09241e-06
1.09241e-06
1.09241e-06
1.09241e-06
1.09241e-06
1.0924e-06
1.0924e-06
1.09436e-06
1.09516e-06
1.09404e-06
1.0924e-06
1.0924e-06
1.09241e-06
1.09241e-06
1.09241e-06
1.09241e-06
1.09241e-06
1.0924e-06
1.0924e-06
1.09434e-06
1.09517e-06
1.09409e-06
1.0924e-06
1.0924e-06
1.09241e-06
1.09241e-06
1.09241e-06
1.09241e-06
1.09241e-06
1.0924e-06
1.0924e-06
1.09435e-06
1.09517e-06
1.09496e-06
1.09391e-06
1.0924e-06
1.0924e-06
1.09241e-06
1.09241e-06
1.09241e-06
1.0924e-06
1.0924e-06
1.09412e-06
1.09436e-06
1.09516e-06
1.09501e-06
1.09424e-06
1.09389e-06
1.0924e-06
1.0924e-06
1.0924e-06
1.0924e-06
1.0924e-06
1.09408e-06
1.09428e-06
1.09442e-06
1.09499e-06
1.09424e-06
1.09391e-06
1.0924e-06
1.0924e-06
1.0924e-06
1.09412e-06
1.09428e-06
1.0944e-06
1.09514e-06
1.09499e-06
1.09432e-06
1.09436e-06
1.09434e-06
1.09435e-06
1.09436e-06
1.09442e-06
1.09514e-06
1.09503e-06
1.09516e-06
1.09517e-06
1.09517e-06
1.09516e-06
1.08519e-06
1.08433e-06
1.08426e-06
1.08431e-06
1.08518e-06
1.08523e-06
1.08522e-06
1.08445e-06
1.08398e-06
1.08261e-06
1.08261e-06
1.08261e-06
1.08413e-06
1.08446e-06
1.0852e-06
1.08445e-06
1.08394e-06
1.08261e-06
1.08262e-06
1.08262e-06
1.08262e-06
1.08261e-06
1.0841e-06
1.08446e-06
1.08521e-06
1.08519e-06
1.08398e-06
1.08261e-06
1.08262e-06
1.08262e-06
1.08262e-06
1.08262e-06
1.08262e-06
1.08261e-06
1.08413e-06
1.08454e-06
1.08525e-06
1.08433e-06
1.08261e-06
1.08262e-06
1.08262e-06
1.08262e-06
1.08262e-06
1.08262e-06
1.08262e-06
1.08262e-06
1.08261e-06
1.08457e-06
1.08537e-06
1.08426e-06
1.08261e-06
1.08262e-06
1.08262e-06
1.08262e-06
1.08262e-06
1.08262e-06
1.08262e-06
1.08262e-06
1.08261e-06
1.08456e-06
1.08538e-06
1.08431e-06
1.08261e-06
1.08262e-06
1.08262e-06
1.08262e-06
1.08262e-06
1.08262e-06
1.08262e-06
1.08262e-06
1.08261e-06
1.08456e-06
1.08538e-06
1.08518e-06
1.08413e-06
1.08261e-06
1.08262e-06
1.08262e-06
1.08262e-06
1.08262e-06
1.08262e-06
1.08261e-06
1.08433e-06
1.08458e-06
1.08537e-06
1.08523e-06
1.08446e-06
1.0841e-06
1.08261e-06
1.08262e-06
1.08262e-06
1.08262e-06
1.08261e-06
1.0843e-06
1.08449e-06
1.08464e-06
1.0852e-06
1.08446e-06
1.08413e-06
1.08261e-06
1.08261e-06
1.08261e-06
1.08433e-06
1.08449e-06
1.08461e-06
1.08536e-06
1.08521e-06
1.08454e-06
1.08457e-06
1.08456e-06
1.08456e-06
1.08458e-06
1.08464e-06
1.08536e-06
1.08525e-06
1.08537e-06
1.08538e-06
1.08538e-06
1.08537e-06
1.07541e-06
1.07454e-06
1.07447e-06
1.07452e-06
1.07539e-06
1.07544e-06
1.07544e-06
1.07467e-06
1.07419e-06
1.07283e-06
1.07283e-06
1.07283e-06
1.07434e-06
1.07467e-06
1.07542e-06
1.07467e-06
1.07416e-06
1.07283e-06
1.07283e-06
1.07283e-06
1.07283e-06
1.07283e-06
1.07432e-06
1.07467e-06
1.07542e-06
1.07541e-06
1.07419e-06
1.07283e-06
1.07283e-06
1.07283e-06
1.07283e-06
1.07283e-06
1.07283e-06
1.07283e-06
1.07434e-06
1.07475e-06
1.07546e-06
1.07454e-06
1.07283e-06
1.07283e-06
1.07283e-06
1.07283e-06
1.07283e-06
1.07283e-06
1.07283e-06
1.07283e-06
1.07283e-06
1.07479e-06
1.07559e-06
1.07447e-06
1.07283e-06
1.07283e-06
1.07283e-06
1.07283e-06
1.07283e-06
1.07283e-06
1.07283e-06
1.07283e-06
1.07283e-06
1.07477e-06
1.0756e-06
1.07452e-06
1.07283e-06
1.07283e-06
1.07283e-06
1.07283e-06
1.07283e-06
1.07283e-06
1.07283e-06
1.07283e-06
1.07283e-06
1.07478e-06
1.0756e-06
1.07539e-06
1.07434e-06
1.07283e-06
1.07283e-06
1.07283e-06
1.07283e-06
1.07283e-06
1.07283e-06
1.07283e-06
1.07455e-06
1.07479e-06
1.07559e-06
1.07544e-06
1.07467e-06
1.07432e-06
1.07283e-06
1.07283e-06
1.07283e-06
1.07283e-06
1.07283e-06
1.07451e-06
1.07471e-06
1.07485e-06
1.07542e-06
1.07467e-06
1.07434e-06
1.07283e-06
1.07283e-06
1.07283e-06
1.07455e-06
1.07471e-06
1.07483e-06
1.07557e-06
1.07542e-06
1.07475e-06
1.07479e-06
1.07477e-06
1.07478e-06
1.07479e-06
1.07485e-06
1.07557e-06
1.07546e-06
1.07559e-06
1.0756e-06
1.0756e-06
1.07559e-06
1.06562e-06
1.06476e-06
1.06469e-06
1.06474e-06
1.06561e-06
1.06566e-06
1.06565e-06
1.06488e-06
1.06441e-06
1.06304e-06
1.06304e-06
1.06304e-06
1.06456e-06
1.06489e-06
1.06563e-06
1.06488e-06
1.06437e-06
1.06304e-06
1.06304e-06
1.06304e-06
1.06304e-06
1.06304e-06
1.06453e-06
1.06489e-06
1.06564e-06
1.06562e-06
1.06441e-06
1.06304e-06
1.06304e-06
1.06304e-06
1.06304e-06
1.06304e-06
1.06304e-06
1.06304e-06
1.06456e-06
1.06497e-06
1.06568e-06
1.06476e-06
1.06304e-06
1.06304e-06
1.06304e-06
1.06304e-06
1.06304e-06
1.06304e-06
1.06304e-06
1.06304e-06
1.06304e-06
1.065e-06
1.06581e-06
1.06469e-06
1.06304e-06
1.06304e-06
1.06304e-06
1.06304e-06
1.06305e-06
1.06304e-06
1.06304e-06
1.06304e-06
1.06304e-06
1.06499e-06
1.06581e-06
1.06474e-06
1.06304e-06
1.06304e-06
1.06304e-06
1.06304e-06
1.06304e-06
1.06304e-06
1.06304e-06
1.06304e-06
1.06304e-06
1.06499e-06
1.06581e-06
1.06561e-06
1.06456e-06
1.06304e-06
1.06304e-06
1.06304e-06
1.06304e-06
1.06304e-06
1.06304e-06
1.06304e-06
1.06476e-06
1.06501e-06
1.0658e-06
1.06566e-06
1.06489e-06
1.06453e-06
1.06304e-06
1.06304e-06
1.06304e-06
1.06304e-06
1.06304e-06
1.06473e-06
1.06492e-06
1.06507e-06
1.06563e-06
1.06489e-06
1.06456e-06
1.06304e-06
1.06304e-06
1.06304e-06
1.06476e-06
1.06492e-06
1.06504e-06
1.06579e-06
1.06564e-06
1.06497e-06
1.065e-06
1.06499e-06
1.06499e-06
1.06501e-06
1.06507e-06
1.06579e-06
1.06568e-06
1.06581e-06
1.06581e-06
1.06581e-06
1.0658e-06
1.05584e-06
1.05497e-06
1.0549e-06
1.05495e-06
1.05582e-06
1.05587e-06
1.05587e-06
1.0551e-06
1.05462e-06
1.05326e-06
1.05326e-06
1.05326e-06
1.05477e-06
1.0551e-06
1.05585e-06
1.0551e-06
1.05459e-06
1.05326e-06
1.05326e-06
1.05326e-06
1.05326e-06
1.05326e-06
1.05475e-06
1.0551e-06
1.05585e-06
1.05584e-06
1.05462e-06
1.05326e-06
1.05326e-06
1.05326e-06
1.05326e-06
1.05326e-06
1.05326e-06
1.05326e-06
1.05477e-06
1.05518e-06
1.05589e-06
1.05497e-06
1.05326e-06
1.05326e-06
1.05326e-06
1.05326e-06
1.05326e-06
1.05326e-06
1.05326e-06
1.05326e-06
1.05326e-06
1.05522e-06
1.05602e-06
1.0549e-06
1.05326e-06
1.05326e-06
1.05326e-06
1.05326e-06
1.05326e-06
1.05326e-06
1.05326e-06
1.05326e-06
1.05326e-06
1.0552e-06
1.05603e-06
1.05495e-06
1.05326e-06
1.05326e-06
1.05326e-06
1.05326e-06
1.05326e-06
1.05326e-06
1.05326e-06
1.05326e-06
1.05326e-06
1.05521e-06
1.05603e-06
1.05582e-06
1.05477e-06
1.05326e-06
1.05326e-06
1.05326e-06
1.05326e-06
1.05326e-06
1.05326e-06
1.05326e-06
1.05498e-06
1.05522e-06
1.05602e-06
1.05587e-06
1.0551e-06
1.05475e-06
1.05326e-06
1.05326e-06
1.05326e-06
1.05326e-06
1.05326e-06
1.05494e-06
1.05514e-06
1.05528e-06
1.05585e-06
1.0551e-06
1.05477e-06
1.05326e-06
1.05326e-06
1.05326e-06
1.05498e-06
1.05514e-06
1.05526e-06
1.056e-06
1.05585e-06
1.05518e-06
1.05522e-06
1.0552e-06
1.05521e-06
1.05522e-06
1.05528e-06
1.056e-06
1.05589e-06
1.05602e-06
1.05603e-06
1.05603e-06
1.05602e-06
1.04605e-06
1.04519e-06
1.04512e-06
1.04517e-06
1.04604e-06
1.04609e-06
1.04608e-06
1.04531e-06
1.04484e-06
1.04347e-06
1.04347e-06
1.04347e-06
1.04499e-06
1.04532e-06
1.04606e-06
1.04531e-06
1.0448e-06
1.04347e-06
1.04347e-06
1.04347e-06
1.04347e-06
1.04347e-06
1.04496e-06
1.04532e-06
1.04607e-06
1.04605e-06
1.04484e-06
1.04347e-06
1.04347e-06
1.04347e-06
1.04347e-06
1.04347e-06
1.04347e-06
1.04347e-06
1.04499e-06
1.0454e-06
1.04611e-06
1.04519e-06
1.04347e-06
1.04347e-06
1.04347e-06
1.04347e-06
1.04347e-06
1.04347e-06
1.04347e-06
1.04347e-06
1.04347e-06
1.04543e-06
1.04624e-06
1.04512e-06
1.04347e-06
1.04347e-06
1.04347e-06
1.04347e-06
1.04347e-06
1.04347e-06
1.04347e-06
1.04347e-06
1.04347e-06
1.04542e-06
1.04624e-06
1.04517e-06
1.04347e-06
1.04347e-06
1.04347e-06
1.04347e-06
1.04347e-06
1.04347e-06
1.04347e-06
1.04347e-06
1.04347e-06
1.04542e-06
1.04624e-06
1.04604e-06
1.04499e-06
1.04347e-06
1.04347e-06
1.04347e-06
1.04347e-06
1.04347e-06
1.04347e-06
1.04347e-06
1.04519e-06
1.04544e-06
1.04623e-06
1.04609e-06
1.04532e-06
1.04496e-06
1.04347e-06
1.04347e-06
1.04347e-06
1.04347e-06
1.04347e-06
1.04516e-06
1.04535e-06
1.0455e-06
1.04606e-06
1.04532e-06
1.04499e-06
1.04347e-06
1.04347e-06
1.04347e-06
1.04519e-06
1.04535e-06
1.04547e-06
1.04622e-06
1.04607e-06
1.0454e-06
1.04543e-06
1.04542e-06
1.04542e-06
1.04544e-06
1.0455e-06
1.04622e-06
1.04611e-06
1.04624e-06
1.04624e-06
1.04624e-06
1.04623e-06
1.03627e-06
1.0354e-06
1.03533e-06
1.03538e-06
1.03625e-06
1.0363e-06
1.0363e-06
1.03553e-06
1.03505e-06
1.03369e-06
1.03369e-06
1.03369e-06
1.0352e-06
1.03553e-06
1.03628e-06
1.03553e-06
1.03502e-06
1.03369e-06
1.03369e-06
1.03369e-06
1.03369e-06
1.03369e-06
1.03518e-06
1.03553e-06
1.03628e-06
1.03627e-06
1.03505e-06
1.03369e-06
1.03369e-06
1.03369e-06
1.03369e-06
1.03369e-06
1.03369e-06
1.03369e-06
1.0352e-06
1.03561e-06
1.03632e-06
1.0354e-06
1.03369e-06
1.03369e-06
1.03369e-06
1.03369e-06
1.03369e-06
1.03369e-06
1.03369e-06
1.03369e-06
1.03369e-06
1.03565e-06
1.03645e-06
1.03533e-06
1.03369e-06
1.03369e-06
1.03369e-06
1.03369e-06
1.03369e-06
1.03369e-06
1.03369e-06
1.03369e-06
1.03369e-06
1.03563e-06
1.03646e-06
1.03538e-06
1.03369e-06
1.03369e-06
1.03369e-06
1.03369e-06
1.03369e-06
1.03369e-06
1.03369e-06
1.03369e-06
1.03369e-06
1.03564e-06
1.03646e-06
1.03625e-06
1.0352e-06
1.03369e-06
1.03369e-06
1.03369e-06
1.03369e-06
1.03369e-06
1.03369e-06
1.03369e-06
1.03541e-06
1.03565e-06
1.03645e-06
1.0363e-06
1.03553e-06
1.03518e-06
1.03369e-06
1.03369e-06
1.03369e-06
1.03369e-06
1.03369e-06
1.03537e-06
1.03557e-06
1.03571e-06
1.03628e-06
1.03553e-06
1.0352e-06
1.03369e-06
1.03369e-06
1.03369e-06
1.03541e-06
1.03557e-06
1.03569e-06
1.03643e-06
1.03628e-06
1.03561e-06
1.03565e-06
1.03563e-06
1.03564e-06
1.03565e-06
1.03571e-06
1.03643e-06
1.03632e-06
1.03645e-06
1.03646e-06
1.03646e-06
1.03645e-06
1.02648e-06
1.02562e-06
1.02555e-06
1.0256e-06
1.02647e-06
1.02652e-06
1.02651e-06
1.02574e-06
1.02527e-06
1.0239e-06
1.0239e-06
1.0239e-06
1.02542e-06
1.02575e-06
1.02649e-06
1.02574e-06
1.02523e-06
1.0239e-06
1.0239e-06
1.0239e-06
1.0239e-06
1.0239e-06
1.02539e-06
1.02575e-06
1.0265e-06
1.02648e-06
1.02527e-06
1.0239e-06
1.0239e-06
1.0239e-06
1.0239e-06
1.0239e-06
1.0239e-06
1.0239e-06
1.02542e-06
1.02583e-06
1.02654e-06
1.02562e-06
1.0239e-06
1.0239e-06
1.0239e-06
1.0239e-06
1.0239e-06
1.0239e-06
1.0239e-06
1.0239e-06
1.0239e-06
1.02586e-06
1.02667e-06
1.02555e-06
1.0239e-06
1.0239e-06
1.0239e-06
1.0239e-06
1.0239e-06
1.0239e-06
1.0239e-06
1.0239e-06
1.0239e-06
1.02585e-06
1.02667e-06
1.0256e-06
1.0239e-06
1.0239e-06
1.0239e-06
1.0239e-06
1.0239e-06
1.0239e-06
1.0239e-06
1.0239e-06
1.0239e-06
1.02585e-06
1.02667e-06
1.02647e-06
1.02542e-06
1.0239e-06
1.0239e-06
1.0239e-06
1.0239e-06
1.0239e-06
1.0239e-06
1.0239e-06
1.02562e-06
1.02587e-06
1.02666e-06
1.02652e-06
1.02575e-06
1.02539e-06
1.0239e-06
1.0239e-06
1.0239e-06
1.0239e-06
1.0239e-06
1.02559e-06
1.02578e-06
1.02593e-06
1.02649e-06
1.02575e-06
1.02542e-06
1.0239e-06
1.0239e-06
1.0239e-06
1.02562e-06
1.02578e-06
1.0259e-06
1.02665e-06
1.0265e-06
1.02583e-06
1.02586e-06
1.02585e-06
1.02585e-06
1.02587e-06
1.02593e-06
1.02665e-06
1.02654e-06
1.02667e-06
1.02667e-06
1.02667e-06
1.02666e-06
1.0167e-06
1.01583e-06
1.01576e-06
1.01581e-06
1.01668e-06
1.01673e-06
1.01673e-06
1.01596e-06
1.01548e-06
1.01412e-06
1.01412e-06
1.01412e-06
1.01563e-06
1.01596e-06
1.01671e-06
1.01596e-06
1.01545e-06
1.01412e-06
1.01412e-06
1.01412e-06
1.01412e-06
1.01412e-06
1.01561e-06
1.01596e-06
1.01671e-06
1.0167e-06
1.01548e-06
1.01412e-06
1.01412e-06
1.01412e-06
1.01412e-06
1.01412e-06
1.01412e-06
1.01412e-06
1.01563e-06
1.01604e-06
1.01675e-06
1.01583e-06
1.01412e-06
1.01412e-06
1.01412e-06
1.01412e-06
1.01412e-06
1.01412e-06
1.01412e-06
1.01412e-06
1.01412e-06
1.01608e-06
1.01688e-06
1.01576e-06
1.01412e-06
1.01412e-06
1.01412e-06
1.01412e-06
1.01412e-06
1.01412e-06
1.01412e-06
1.01412e-06
1.01412e-06
1.01606e-06
1.01689e-06
1.01581e-06
1.01412e-06
1.01412e-06
1.01412e-06
1.01412e-06
1.01412e-06
1.01412e-06
1.01412e-06
1.01412e-06
1.01412e-06
1.01607e-06
1.01689e-06
1.01668e-06
1.01563e-06
1.01412e-06
1.01412e-06
1.01412e-06
1.01412e-06
1.01412e-06
1.01412e-06
1.01412e-06
1.01584e-06
1.01608e-06
1.01688e-06
1.01673e-06
1.01596e-06
1.01561e-06
1.01412e-06
1.01412e-06
1.01412e-06
1.01412e-06
1.01412e-06
1.0158e-06
1.016e-06
1.01614e-06
1.01671e-06
1.01596e-06
1.01563e-06
1.01412e-06
1.01412e-06
1.01412e-06
1.01584e-06
1.016e-06
1.01612e-06
1.01686e-06
1.01671e-06
1.01604e-06
1.01608e-06
1.01606e-06
1.01607e-06
1.01608e-06
1.01614e-06
1.01686e-06
1.01675e-06
1.01688e-06
1.01689e-06
1.01689e-06
1.01688e-06
1.00691e-06
1.00605e-06
1.00598e-06
1.00603e-06
1.0069e-06
1.00695e-06
1.00694e-06
1.00617e-06
1.0057e-06
1.00433e-06
1.00433e-06
1.00433e-06
1.00585e-06
1.00618e-06
1.00692e-06
1.00617e-06
1.00566e-06
1.00433e-06
1.00433e-06
1.00433e-06
1.00433e-06
1.00433e-06
1.00582e-06
1.00618e-06
1.00693e-06
1.00691e-06
1.0057e-06
1.00433e-06
1.00433e-06
1.00433e-06
1.00433e-06
1.00433e-06
1.00433e-06
1.00433e-06
1.00585e-06
1.00626e-06
1.00697e-06
1.00605e-06
1.00433e-06
1.00433e-06
1.00433e-06
1.00433e-06
1.00433e-06
1.00433e-06
1.00433e-06
1.00433e-06
1.00433e-06
1.00629e-06
1.0071e-06
1.00598e-06
1.00433e-06
1.00433e-06
1.00433e-06
1.00433e-06
1.00433e-06
1.00433e-06
1.00433e-06
1.00433e-06
1.00433e-06
1.00628e-06
1.0071e-06
1.00603e-06
1.00433e-06
1.00433e-06
1.00433e-06
1.00433e-06
1.00433e-06
1.00433e-06
1.00433e-06
1.00433e-06
1.00433e-06
1.00628e-06
1.0071e-06
1.0069e-06
1.00585e-06
1.00433e-06
1.00433e-06
1.00433e-06
1.00433e-06
1.00433e-06
1.00433e-06
1.00433e-06
1.00605e-06
1.0063e-06
1.00709e-06
1.00695e-06
1.00618e-06
1.00582e-06
1.00433e-06
1.00433e-06
1.00433e-06
1.00433e-06
1.00433e-06
1.00602e-06
1.00621e-06
1.00636e-06
1.00692e-06
1.00618e-06
1.00585e-06
1.00433e-06
1.00433e-06
1.00433e-06
1.00605e-06
1.00621e-06
1.00633e-06
1.00708e-06
1.00693e-06
1.00626e-06
1.00629e-06
1.00628e-06
1.00628e-06
1.0063e-06
1.00636e-06
1.00708e-06
1.00697e-06
1.0071e-06
1.0071e-06
1.0071e-06
1.00709e-06
9.97127e-07
9.96263e-07
9.96195e-07
9.96244e-07
9.97112e-07
9.9716e-07
9.97157e-07
9.96386e-07
9.95913e-07
9.94547e-07
9.94547e-07
9.94547e-07
9.96061e-07
9.96393e-07
9.97137e-07
9.96386e-07
9.95878e-07
9.94547e-07
9.94548e-07
9.94547e-07
9.94548e-07
9.94547e-07
9.96037e-07
9.9639e-07
9.97141e-07
9.97127e-07
9.95913e-07
9.94547e-07
9.94548e-07
9.94547e-07
9.94548e-07
9.94547e-07
9.94548e-07
9.94547e-07
9.96062e-07
9.96475e-07
9.9718e-07
9.96263e-07
9.94547e-07
9.94548e-07
9.94547e-07
9.94548e-07
9.94547e-07
9.94548e-07
9.94547e-07
9.94548e-07
9.94547e-07
9.96508e-07
9.9731e-07
9.96195e-07
9.94547e-07
9.94547e-07
9.94547e-07
9.94547e-07
9.94547e-07
9.94547e-07
9.94548e-07
9.94547e-07
9.94547e-07
9.96492e-07
9.97316e-07
9.96244e-07
9.94547e-07
9.94548e-07
9.94547e-07
9.94548e-07
9.94547e-07
9.94548e-07
9.94547e-07
9.94548e-07
9.94547e-07
9.96498e-07
9.97317e-07
9.97112e-07
9.96061e-07
9.94547e-07
9.94548e-07
9.94547e-07
9.94548e-07
9.94547e-07
9.94548e-07
9.94547e-07
9.96267e-07
9.96513e-07
9.9731e-07
9.9716e-07
9.96393e-07
9.96037e-07
9.94547e-07
9.94548e-07
9.94547e-07
9.94548e-07
9.94547e-07
9.96233e-07
9.96429e-07
9.96571e-07
9.97137e-07
9.9639e-07
9.96062e-07
9.94547e-07
9.94547e-07
9.94547e-07
9.96267e-07
9.96429e-07
9.96547e-07
9.97295e-07
9.97141e-07
9.96475e-07
9.96508e-07
9.96492e-07
9.96498e-07
9.96513e-07
9.96571e-07
9.97295e-07
9.9718e-07
9.9731e-07
9.97316e-07
9.97317e-07
9.9731e-07
9.87342e-07
9.86478e-07
9.86409e-07
9.86458e-07
9.87327e-07
9.87375e-07
9.87372e-07
9.866e-07
9.86128e-07
9.84762e-07
9.84762e-07
9.84762e-07
9.86276e-07
9.86608e-07
9.87352e-07
9.86601e-07
9.86093e-07
9.84762e-07
9.84763e-07
9.84762e-07
9.84763e-07
9.84762e-07
9.86252e-07
9.86605e-07
9.87356e-07
9.87342e-07
9.86128e-07
9.84762e-07
9.84763e-07
9.84762e-07
9.84762e-07
9.84762e-07
9.84763e-07
9.84762e-07
9.86277e-07
9.86689e-07
9.87395e-07
9.86478e-07
9.84762e-07
9.84763e-07
9.84762e-07
9.84763e-07
9.84762e-07
9.84763e-07
9.84762e-07
9.84763e-07
9.84762e-07
9.86722e-07
9.87525e-07
9.86409e-07
9.84762e-07
9.84762e-07
9.84762e-07
9.84762e-07
9.84762e-07
9.84762e-07
9.84762e-07
9.84762e-07
9.84762e-07
9.86707e-07
9.87531e-07
9.86458e-07
9.84762e-07
9.84763e-07
9.84762e-07
9.84763e-07
9.84762e-07
9.84763e-07
9.84762e-07
9.84763e-07
9.84762e-07
9.86713e-07
9.87532e-07
9.87327e-07
9.86275e-07
9.84762e-07
9.84763e-07
9.84762e-07
9.84762e-07
9.84762e-07
9.84763e-07
9.84762e-07
9.86482e-07
9.86728e-07
9.87525e-07
9.87375e-07
9.86608e-07
9.86252e-07
9.84762e-07
9.84763e-07
9.84762e-07
9.84763e-07
9.84762e-07
9.86448e-07
9.86644e-07
9.86786e-07
9.87352e-07
9.86605e-07
9.86277e-07
9.84762e-07
9.84762e-07
9.84762e-07
9.86482e-07
9.86644e-07
9.86761e-07
9.8751e-07
9.87356e-07
9.86689e-07
9.86722e-07
9.86707e-07
9.86713e-07
9.86728e-07
9.86786e-07
9.87509e-07
9.87395e-07
9.87525e-07
9.87531e-07
9.87532e-07
9.87525e-07
9.77557e-07
9.76692e-07
9.76624e-07
9.76673e-07
9.77541e-07
9.7759e-07
9.77587e-07
9.76815e-07
9.76343e-07
9.74976e-07
9.74977e-07
9.74976e-07
9.7649e-07
9.76822e-07
9.77567e-07
9.76815e-07
9.76308e-07
9.74977e-07
9.74978e-07
9.74977e-07
9.74978e-07
9.74977e-07
9.76467e-07
9.7682e-07
9.77571e-07
9.77557e-07
9.76343e-07
9.74977e-07
9.74977e-07
9.74977e-07
9.74977e-07
9.74977e-07
9.74977e-07
9.74977e-07
9.76491e-07
9.76904e-07
9.7761e-07
9.76692e-07
9.74976e-07
9.74978e-07
9.74977e-07
9.74978e-07
9.74977e-07
9.74978e-07
9.74977e-07
9.74978e-07
9.74976e-07
9.76937e-07
9.7774e-07
9.76624e-07
9.74977e-07
9.74977e-07
9.74977e-07
9.74977e-07
9.74977e-07
9.74977e-07
9.74977e-07
9.74977e-07
9.74977e-07
9.76921e-07
9.77746e-07
9.76673e-07
9.74976e-07
9.74978e-07
9.74977e-07
9.74978e-07
9.74977e-07
9.74978e-07
9.74977e-07
9.74978e-07
9.74976e-07
9.76928e-07
9.77747e-07
9.77541e-07
9.7649e-07
9.74977e-07
9.74977e-07
9.74977e-07
9.74977e-07
9.74977e-07
9.74977e-07
9.74977e-07
9.76697e-07
9.76943e-07
9.77739e-07
9.7759e-07
9.76822e-07
9.76467e-07
9.74977e-07
9.74978e-07
9.74977e-07
9.74978e-07
9.74977e-07
9.76663e-07
9.76859e-07
9.77001e-07
9.77567e-07
9.7682e-07
9.76491e-07
9.74976e-07
9.74977e-07
9.74976e-07
9.76697e-07
9.76859e-07
9.76976e-07
9.77725e-07
9.77571e-07
9.76904e-07
9.76937e-07
9.76921e-07
9.76928e-07
9.76943e-07
9.77001e-07
9.77724e-07
9.7761e-07
9.7774e-07
9.77746e-07
9.77747e-07
9.77739e-07
9.67772e-07
9.66907e-07
9.66839e-07
9.66888e-07
9.67756e-07
9.67805e-07
9.67802e-07
9.6703e-07
9.66557e-07
9.65191e-07
9.65192e-07
9.65191e-07
9.66705e-07
9.67037e-07
9.67782e-07
9.6703e-07
9.66523e-07
9.65192e-07
9.65193e-07
9.65192e-07
9.65193e-07
9.65192e-07
9.66682e-07
9.67035e-07
9.67786e-07
9.67772e-07
9.66557e-07
9.65192e-07
9.65192e-07
9.65192e-07
9.65192e-07
9.65192e-07
9.65192e-07
9.65192e-07
9.66706e-07
9.67119e-07
9.67825e-07
9.66907e-07
9.65191e-07
9.65193e-07
9.65192e-07
9.65193e-07
9.65192e-07
9.65193e-07
9.65192e-07
9.65193e-07
9.65191e-07
9.67152e-07
9.67955e-07
9.66839e-07
9.65192e-07
9.65192e-07
9.65192e-07
9.65192e-07
9.65192e-07
9.65192e-07
9.65192e-07
9.65192e-07
9.65192e-07
9.67136e-07
9.6796e-07
9.66888e-07
9.65191e-07
9.65193e-07
9.65192e-07
9.65193e-07
9.65192e-07
9.65193e-07
9.65192e-07
9.65193e-07
9.65191e-07
9.67143e-07
9.67962e-07
9.67756e-07