/*--------------------------------*- C++ -*----------------------------------*\
| =========                 |                                                 |
| \\      /  F ield         | OpenFOAM: The Open Source CFD Toolbox           |
|  \\    /   O peration     | Version:  v2012                                 |
|   \\  /    A nd           | Website:  www.openfoam.com                      |
|    \\/     M anipulation  |                                                 |
\*---------------------------------------------------------------------------*/
FoamFile
{
    version     2.0;
    format      ascii;
    class       volScalarField;
    location    "42";
    object      p;
}
// * * * * * * * * * * * * * * * * * * * * * * * * * * * * * * * * * * * * * //

dimensions      [0 2 -2 0 0 0 0];


internalField   nonuniform List<scalar> 
292667
(
1.27258e-06
1.26282e-06
1.26201e-06
1.26208e-06
1.2632e-06
1.27351e-06
1.26303e-06
1.26019e-06
1.25853e-06
1.25786e-06
1.25794e-06
1.25883e-06
1.26074e-06
1.26385e-06
1.26303e-06
1.25935e-06
1.25708e-06
1.25583e-06
1.2553e-06
1.25537e-06
1.25605e-06
1.25751e-06
1.26008e-06
1.26409e-06
1.27258e-06
1.26019e-06
1.25708e-06
1.25524e-06
1.25421e-06
1.25377e-06
1.25383e-06
1.2544e-06
1.2556e-06
1.25769e-06
1.26118e-06
1.27234e-06
1.26282e-06
1.25853e-06
1.25583e-06
1.25421e-06
1.25329e-06
1.25289e-06
1.25295e-06
1.25346e-06
1.25453e-06
1.25637e-06
1.25944e-06
1.26669e-06
1.26201e-06
1.25786e-06
1.2553e-06
1.25377e-06
1.25289e-06
1.25251e-06
1.25257e-06
1.25306e-06
1.25408e-06
1.25582e-06
1.25873e-06
1.26492e-06
1.26208e-06
1.25794e-06
1.25537e-06
1.25383e-06
1.25295e-06
1.25257e-06
1.25262e-06
1.25312e-06
1.25414e-06
1.2559e-06
1.25883e-06
1.26525e-06
1.2632e-06
1.25883e-06
1.25605e-06
1.2544e-06
1.25346e-06
1.25306e-06
1.25312e-06
1.25364e-06
1.25473e-06
1.25662e-06
1.25978e-06
1.26702e-06
1.27351e-06
1.26074e-06
1.25751e-06
1.2556e-06
1.25453e-06
1.25408e-06
1.25414e-06
1.25473e-06
1.25598e-06
1.25817e-06
1.26179e-06
1.27228e-06
1.26385e-06
1.26008e-06
1.25769e-06
1.25637e-06
1.25582e-06
1.2559e-06
1.25662e-06
1.25817e-06
1.2609e-06
1.26761e-06
1.26409e-06
1.26118e-06
1.25944e-06
1.25873e-06
1.25883e-06
1.25978e-06
1.26179e-06
1.26761e-06
1.27234e-06
1.26669e-06
1.26492e-06
1.26525e-06
1.26702e-06
1.27228e-06
1.24468e-06
1.24371e-06
1.24368e-06
1.24371e-06
1.24462e-06
1.24454e-06
1.24474e-06
1.24397e-06
1.24356e-06
1.24203e-06
1.24201e-06
1.24203e-06
1.24372e-06
1.24399e-06
1.24474e-06
1.24397e-06
1.24357e-06
1.24208e-06
1.24201e-06
1.24207e-06
1.24201e-06
1.24208e-06
1.24369e-06
1.24396e-06
1.24471e-06
1.24468e-06
1.24356e-06
1.24208e-06
1.24201e-06
1.24205e-06
1.24204e-06
1.24205e-06
1.24201e-06
1.24208e-06
1.24368e-06
1.24398e-06
1.24479e-06
1.24371e-06
1.24203e-06
1.24201e-06
1.24205e-06
1.24202e-06
1.24202e-06
1.24202e-06
1.24205e-06
1.24201e-06
1.24203e-06
1.2441e-06
1.24489e-06
1.24368e-06
1.24201e-06
1.24207e-06
1.24204e-06
1.24202e-06
1.24201e-06
1.24202e-06
1.24204e-06
1.24207e-06
1.24201e-06
1.24411e-06
1.24477e-06
1.24371e-06
1.24203e-06
1.24201e-06
1.24205e-06
1.24202e-06
1.24202e-06
1.24202e-06
1.24205e-06
1.24201e-06
1.24203e-06
1.24412e-06
1.2448e-06
1.24462e-06
1.24372e-06
1.24208e-06
1.24201e-06
1.24205e-06
1.24204e-06
1.24205e-06
1.24201e-06
1.24208e-06
1.24383e-06
1.24402e-06
1.24486e-06
1.24454e-06
1.24399e-06
1.24369e-06
1.24208e-06
1.24201e-06
1.24207e-06
1.24201e-06
1.24208e-06
1.2438e-06
1.24399e-06
1.24403e-06
1.24474e-06
1.24396e-06
1.24368e-06
1.24203e-06
1.24201e-06
1.24203e-06
1.24383e-06
1.24399e-06
1.24409e-06
1.24485e-06
1.24471e-06
1.24398e-06
1.2441e-06
1.24411e-06
1.24412e-06
1.24402e-06
1.24403e-06
1.24485e-06
1.24479e-06
1.24489e-06
1.24477e-06
1.2448e-06
1.24486e-06
1.23408e-06
1.23312e-06
1.23305e-06
1.2331e-06
1.23404e-06
1.23411e-06
1.23412e-06
1.23327e-06
1.2328e-06
1.2313e-06
1.2313e-06
1.2313e-06
1.23295e-06
1.23329e-06
1.23408e-06
1.23327e-06
1.23279e-06
1.23135e-06
1.23135e-06
1.23139e-06
1.23135e-06
1.23135e-06
1.23295e-06
1.23328e-06
1.23408e-06
1.23408e-06
1.2328e-06
1.23135e-06
1.23136e-06
1.23142e-06
1.23142e-06
1.23142e-06
1.23136e-06
1.23135e-06
1.23296e-06
1.23334e-06
1.23414e-06
1.23312e-06
1.2313e-06
1.23135e-06
1.23142e-06
1.23144e-06
1.23145e-06
1.23144e-06
1.23142e-06
1.23135e-06
1.2313e-06
1.23337e-06
1.23425e-06
1.23305e-06
1.2313e-06
1.23139e-06
1.23142e-06
1.23145e-06
1.23146e-06
1.23145e-06
1.23142e-06
1.23139e-06
1.2313e-06
1.23336e-06
1.23425e-06
1.2331e-06
1.2313e-06
1.23135e-06
1.23142e-06
1.23144e-06
1.23145e-06
1.23144e-06
1.23142e-06
1.23135e-06
1.2313e-06
1.23337e-06
1.23425e-06
1.23404e-06
1.23295e-06
1.23135e-06
1.23136e-06
1.23142e-06
1.23142e-06
1.23142e-06
1.23136e-06
1.23135e-06
1.23314e-06
1.23337e-06
1.23426e-06
1.23411e-06
1.23329e-06
1.23295e-06
1.23135e-06
1.23135e-06
1.23139e-06
1.23135e-06
1.23135e-06
1.23311e-06
1.2333e-06
1.23341e-06
1.23408e-06
1.23328e-06
1.23296e-06
1.2313e-06
1.2313e-06
1.2313e-06
1.23314e-06
1.2333e-06
1.2334e-06
1.23424e-06
1.23408e-06
1.23334e-06
1.23337e-06
1.23336e-06
1.23337e-06
1.23337e-06
1.23341e-06
1.23424e-06
1.23414e-06
1.23425e-06
1.23425e-06
1.23425e-06
1.23426e-06
1.22354e-06
1.22256e-06
1.22249e-06
1.22254e-06
1.2235e-06
1.22356e-06
1.22357e-06
1.2227e-06
1.22221e-06
1.22069e-06
1.22069e-06
1.22069e-06
1.22236e-06
1.22271e-06
1.22353e-06
1.2227e-06
1.22219e-06
1.22072e-06
1.22073e-06
1.22075e-06
1.22073e-06
1.22072e-06
1.22234e-06
1.2227e-06
1.22353e-06
1.22354e-06
1.22221e-06
1.22072e-06
1.22074e-06
1.22078e-06
1.22079e-06
1.22078e-06
1.22074e-06
1.22072e-06
1.22236e-06
1.22278e-06
1.22359e-06
1.22256e-06
1.22069e-06
1.22073e-06
1.22078e-06
1.2208e-06
1.22082e-06
1.2208e-06
1.22078e-06
1.22073e-06
1.22069e-06
1.2228e-06
1.2237e-06
1.22249e-06
1.22069e-06
1.22075e-06
1.22079e-06
1.22082e-06
1.22082e-06
1.22082e-06
1.22079e-06
1.22075e-06
1.22069e-06
1.22278e-06
1.2237e-06
1.22254e-06
1.22069e-06
1.22073e-06
1.22078e-06
1.2208e-06
1.22082e-06
1.2208e-06
1.22078e-06
1.22073e-06
1.22069e-06
1.22279e-06
1.2237e-06
1.2235e-06
1.22236e-06
1.22072e-06
1.22074e-06
1.22078e-06
1.22079e-06
1.22078e-06
1.22074e-06
1.22072e-06
1.22255e-06
1.22281e-06
1.22371e-06
1.22356e-06
1.22271e-06
1.22234e-06
1.22072e-06
1.22073e-06
1.22075e-06
1.22073e-06
1.22072e-06
1.22252e-06
1.22273e-06
1.22287e-06
1.22353e-06
1.2227e-06
1.22236e-06
1.22069e-06
1.22069e-06
1.22069e-06
1.22255e-06
1.22273e-06
1.22285e-06
1.2237e-06
1.22353e-06
1.22278e-06
1.2228e-06
1.22278e-06
1.22279e-06
1.22281e-06
1.22287e-06
1.2237e-06
1.22359e-06
1.2237e-06
1.2237e-06
1.2237e-06
1.22371e-06
1.21299e-06
1.21201e-06
1.21194e-06
1.21199e-06
1.21295e-06
1.21302e-06
1.21303e-06
1.21215e-06
1.21165e-06
1.21012e-06
1.21012e-06
1.21012e-06
1.21179e-06
1.21215e-06
1.21298e-06
1.21215e-06
1.21162e-06
1.21013e-06
1.21014e-06
1.21015e-06
1.21014e-06
1.21013e-06
1.21177e-06
1.21214e-06
1.21298e-06
1.21299e-06
1.21165e-06
1.21013e-06
1.21015e-06
1.21017e-06
1.21018e-06
1.21017e-06
1.21015e-06
1.21013e-06
1.21179e-06
1.21223e-06
1.21304e-06
1.21201e-06
1.21012e-06
1.21014e-06
1.21017e-06
1.21019e-06
1.2102e-06
1.21019e-06
1.21017e-06
1.21014e-06
1.21012e-06
1.21224e-06
1.21316e-06
1.21194e-06
1.21012e-06
1.21015e-06
1.21018e-06
1.2102e-06
1.2102e-06
1.2102e-06
1.21018e-06
1.21015e-06
1.21012e-06
1.21222e-06
1.21315e-06
1.21199e-06
1.21012e-06
1.21014e-06
1.21017e-06
1.21019e-06
1.2102e-06
1.21019e-06
1.21017e-06
1.21014e-06
1.21012e-06
1.21223e-06
1.21315e-06
1.21295e-06
1.21179e-06
1.21013e-06
1.21015e-06
1.21017e-06
1.21018e-06
1.21017e-06
1.21015e-06
1.21013e-06
1.21198e-06
1.21225e-06
1.21316e-06
1.21302e-06
1.21215e-06
1.21177e-06
1.21013e-06
1.21014e-06
1.21015e-06
1.21014e-06
1.21013e-06
1.21195e-06
1.21217e-06
1.21232e-06
1.21298e-06
1.21214e-06
1.21179e-06
1.21012e-06
1.21012e-06
1.21012e-06
1.21198e-06
1.21217e-06
1.2123e-06
1.21315e-06
1.21298e-06
1.21222e-06
1.21224e-06
1.21222e-06
1.21223e-06
1.21225e-06
1.21232e-06
1.21315e-06
1.21304e-06
1.21316e-06
1.21315e-06
1.21315e-06
1.21316e-06
1.20243e-06
1.20146e-06
1.20138e-06
1.20143e-06
1.2024e-06
1.20246e-06
1.20247e-06
1.20159e-06
1.20109e-06
1.19956e-06
1.19956e-06
1.19956e-06
1.20123e-06
1.20159e-06
1.20243e-06
1.20159e-06
1.20106e-06
1.19956e-06
1.19957e-06
1.19957e-06
1.19957e-06
1.19956e-06
1.20121e-06
1.20159e-06
1.20243e-06
1.20243e-06
1.20109e-06
1.19956e-06
1.19957e-06
1.19959e-06
1.19959e-06
1.19959e-06
1.19957e-06
1.19956e-06
1.20123e-06
1.20167e-06
1.20249e-06
1.20146e-06
1.19956e-06
1.19957e-06
1.19959e-06
1.1996e-06
1.1996e-06
1.1996e-06
1.19959e-06
1.19957e-06
1.19956e-06
1.20169e-06
1.2026e-06
1.20138e-06
1.19956e-06
1.19958e-06
1.19959e-06
1.1996e-06
1.19961e-06
1.1996e-06
1.19959e-06
1.19958e-06
1.19956e-06
1.20167e-06
1.2026e-06
1.20143e-06
1.19956e-06
1.19957e-06
1.19959e-06
1.1996e-06
1.1996e-06
1.1996e-06
1.19959e-06
1.19957e-06
1.19956e-06
1.20168e-06
1.2026e-06
1.2024e-06
1.20123e-06
1.19956e-06
1.19957e-06
1.19959e-06
1.19959e-06
1.19959e-06
1.19957e-06
1.19956e-06
1.20143e-06
1.2017e-06
1.20261e-06
1.20246e-06
1.20159e-06
1.20121e-06
1.19956e-06
1.19957e-06
1.19957e-06
1.19957e-06
1.19956e-06
1.20139e-06
1.20161e-06
1.20177e-06
1.20243e-06
1.20159e-06
1.20123e-06
1.19956e-06
1.19956e-06
1.19956e-06
1.20143e-06
1.20161e-06
1.20174e-06
1.2026e-06
1.20243e-06
1.20167e-06
1.20169e-06
1.20167e-06
1.20168e-06
1.2017e-06
1.20177e-06
1.2026e-06
1.20249e-06
1.2026e-06
1.2026e-06
1.2026e-06
1.20261e-06
1.19188e-06
1.1909e-06
1.19083e-06
1.19088e-06
1.19184e-06
1.19191e-06
1.19192e-06
1.19104e-06
1.19054e-06
1.189e-06
1.189e-06
1.189e-06
1.19068e-06
1.19104e-06
1.19188e-06
1.19104e-06
1.1905e-06
1.189e-06
1.18901e-06
1.18901e-06
1.18901e-06
1.189e-06
1.19065e-06
1.19103e-06
1.19188e-06
1.19188e-06
1.19054e-06
1.189e-06
1.18901e-06
1.18901e-06
1.18902e-06
1.18901e-06
1.18901e-06
1.189e-06
1.19068e-06
1.19112e-06
1.19194e-06
1.1909e-06
1.189e-06
1.18901e-06
1.18901e-06
1.18902e-06
1.18902e-06
1.18902e-06
1.18901e-06
1.18901e-06
1.189e-06
1.19113e-06
1.19205e-06
1.19083e-06
1.189e-06
1.18901e-06
1.18902e-06
1.18902e-06
1.18903e-06
1.18902e-06
1.18902e-06
1.18901e-06
1.189e-06
1.19111e-06
1.19205e-06
1.19088e-06
1.189e-06
1.18901e-06
1.18901e-06
1.18902e-06
1.18902e-06
1.18902e-06
1.18901e-06
1.18901e-06
1.189e-06
1.19112e-06
1.19205e-06
1.19184e-06
1.19068e-06
1.189e-06
1.18901e-06
1.18901e-06
1.18902e-06
1.18901e-06
1.18901e-06
1.189e-06
1.19087e-06
1.19115e-06
1.19206e-06
1.19191e-06
1.19104e-06
1.19065e-06
1.189e-06
1.18901e-06
1.18901e-06
1.18901e-06
1.189e-06
1.19084e-06
1.19106e-06
1.19122e-06
1.19188e-06
1.19103e-06
1.19068e-06
1.189e-06
1.189e-06
1.189e-06
1.19087e-06
1.19106e-06
1.19119e-06
1.19204e-06
1.19188e-06
1.19112e-06
1.19113e-06
1.19111e-06
1.19112e-06
1.19115e-06
1.19122e-06
1.19204e-06
1.19194e-06
1.19205e-06
1.19205e-06
1.19205e-06
1.19206e-06
1.18133e-06
1.18035e-06
1.18027e-06
1.18032e-06
1.18129e-06
1.18136e-06
1.18137e-06
1.18049e-06
1.17998e-06
1.17844e-06
1.17844e-06
1.17844e-06
1.18012e-06
1.18048e-06
1.18132e-06
1.18049e-06
1.17995e-06
1.17844e-06
1.17845e-06
1.17845e-06
1.17845e-06
1.17844e-06
1.1801e-06
1.18048e-06
1.18133e-06
1.18133e-06
1.17998e-06
1.17844e-06
1.17845e-06
1.17845e-06
1.17845e-06
1.17845e-06
1.17845e-06
1.17844e-06
1.18012e-06
1.18056e-06
1.18138e-06
1.18035e-06
1.17844e-06
1.17845e-06
1.17845e-06
1.17845e-06
1.17846e-06
1.17845e-06
1.17845e-06
1.17845e-06
1.17844e-06
1.18058e-06
1.1815e-06
1.18027e-06
1.17844e-06
1.17845e-06
1.17845e-06
1.17846e-06
1.17846e-06
1.17846e-06
1.17845e-06
1.17845e-06
1.17844e-06
1.18056e-06
1.18149e-06
1.18032e-06
1.17844e-06
1.17845e-06
1.17845e-06
1.17845e-06
1.17846e-06
1.17845e-06
1.17845e-06
1.17845e-06
1.17844e-06
1.18057e-06
1.18149e-06
1.18129e-06
1.18012e-06
1.17844e-06
1.17845e-06
1.17845e-06
1.17845e-06
1.17845e-06
1.17845e-06
1.17844e-06
1.18032e-06
1.18059e-06
1.1815e-06
1.18136e-06
1.18048e-06
1.1801e-06
1.17844e-06
1.17845e-06
1.17845e-06
1.17845e-06
1.17844e-06
1.18028e-06
1.1805e-06
1.18066e-06
1.18132e-06
1.18048e-06
1.18012e-06
1.17844e-06
1.17844e-06
1.17844e-06
1.18032e-06
1.1805e-06
1.18064e-06
1.18149e-06
1.18133e-06
1.18056e-06
1.18058e-06
1.18056e-06
1.18057e-06
1.18059e-06
1.18066e-06
1.18149e-06
1.18138e-06
1.1815e-06
1.18149e-06
1.18149e-06
1.1815e-06
1.17077e-06
1.16979e-06
1.16972e-06
1.16977e-06
1.17073e-06
1.1708e-06
1.17081e-06
1.16993e-06
1.16943e-06
1.16789e-06
1.16789e-06
1.16789e-06
1.16957e-06
1.16993e-06
1.17077e-06
1.16993e-06
1.16939e-06
1.16789e-06
1.16789e-06
1.16789e-06
1.16789e-06
1.16789e-06
1.16954e-06
1.16993e-06
1.17077e-06
1.17077e-06
1.16943e-06
1.16789e-06
1.16789e-06
1.16789e-06
1.16789e-06
1.16789e-06
1.16789e-06
1.16789e-06
1.16957e-06
1.17001e-06
1.17083e-06
1.16979e-06
1.16789e-06
1.16789e-06
1.16789e-06
1.16789e-06
1.16789e-06
1.16789e-06
1.16789e-06
1.16789e-06
1.16789e-06
1.17002e-06
1.17094e-06
1.16972e-06
1.16789e-06
1.16789e-06
1.16789e-06
1.16789e-06
1.1679e-06
1.16789e-06
1.16789e-06
1.16789e-06
1.16789e-06
1.17e-06
1.17094e-06
1.16977e-06
1.16789e-06
1.16789e-06
1.16789e-06
1.16789e-06
1.16789e-06
1.16789e-06
1.16789e-06
1.16789e-06
1.16789e-06
1.17001e-06
1.17094e-06
1.17073e-06
1.16957e-06
1.16789e-06
1.16789e-06
1.16789e-06
1.16789e-06
1.16789e-06
1.16789e-06
1.16789e-06
1.16976e-06
1.17004e-06
1.17095e-06
1.1708e-06
1.16993e-06
1.16954e-06
1.16789e-06
1.16789e-06
1.16789e-06
1.16789e-06
1.16789e-06
1.16973e-06
1.16995e-06
1.17011e-06
1.17077e-06
1.16993e-06
1.16957e-06
1.16789e-06
1.16789e-06
1.16789e-06
1.16976e-06
1.16995e-06
1.17008e-06
1.17094e-06
1.17077e-06
1.17001e-06
1.17002e-06
1.17e-06
1.17001e-06
1.17004e-06
1.17011e-06
1.17094e-06
1.17083e-06
1.17094e-06
1.17094e-06
1.17094e-06
1.17095e-06
1.16022e-06
1.15924e-06
1.15917e-06
1.15922e-06
1.16018e-06
1.16025e-06
1.16026e-06
1.15938e-06
1.15887e-06
1.15733e-06
1.15733e-06
1.15733e-06
1.15901e-06
1.15937e-06
1.16021e-06
1.15938e-06
1.15884e-06
1.15733e-06
1.15733e-06
1.15733e-06
1.15733e-06
1.15733e-06
1.15899e-06
1.15937e-06
1.16022e-06
1.16022e-06
1.15887e-06
1.15733e-06
1.15733e-06
1.15733e-06
1.15734e-06
1.15733e-06
1.15733e-06
1.15733e-06
1.15901e-06
1.15946e-06
1.16028e-06
1.15924e-06
1.15733e-06
1.15733e-06
1.15733e-06
1.15734e-06
1.15734e-06
1.15734e-06
1.15733e-06
1.15733e-06
1.15733e-06
1.15947e-06
1.16039e-06
1.15917e-06
1.15733e-06
1.15733e-06
1.15734e-06
1.15734e-06
1.15734e-06
1.15734e-06
1.15734e-06
1.15733e-06
1.15733e-06
1.15945e-06
1.16038e-06
1.15922e-06
1.15733e-06
1.15733e-06
1.15733e-06
1.15734e-06
1.15734e-06
1.15734e-06
1.15733e-06
1.15733e-06
1.15733e-06
1.15946e-06
1.16038e-06
1.16018e-06
1.15901e-06
1.15733e-06
1.15733e-06
1.15733e-06
1.15734e-06
1.15733e-06
1.15733e-06
1.15733e-06
1.15921e-06
1.15949e-06
1.16039e-06
1.16025e-06
1.15937e-06
1.15899e-06
1.15733e-06
1.15733e-06
1.15733e-06
1.15733e-06
1.15733e-06
1.15917e-06
1.1594e-06
1.15955e-06
1.16021e-06
1.15937e-06
1.15901e-06
1.15733e-06
1.15733e-06
1.15733e-06
1.15921e-06
1.1594e-06
1.15953e-06
1.16038e-06
1.16022e-06
1.15946e-06
1.15947e-06
1.15945e-06
1.15946e-06
1.15949e-06
1.15955e-06
1.16038e-06
1.16028e-06
1.16039e-06
1.16038e-06
1.16038e-06
1.16039e-06
1.14966e-06
1.14868e-06
1.14861e-06
1.14866e-06
1.14962e-06
1.14969e-06
1.1497e-06
1.14882e-06
1.14832e-06
1.14678e-06
1.14678e-06
1.14678e-06
1.14846e-06
1.14882e-06
1.14966e-06
1.14882e-06
1.14828e-06
1.14678e-06
1.14678e-06
1.14678e-06
1.14678e-06
1.14678e-06
1.14843e-06
1.14882e-06
1.14966e-06
1.14966e-06
1.14832e-06
1.14678e-06
1.14678e-06
1.14678e-06
1.14678e-06
1.14678e-06
1.14678e-06
1.14678e-06
1.14846e-06
1.1489e-06
1.14972e-06
1.14868e-06
1.14678e-06
1.14678e-06
1.14678e-06
1.14678e-06
1.14678e-06
1.14678e-06
1.14678e-06
1.14678e-06
1.14678e-06
1.14892e-06
1.14983e-06
1.14861e-06
1.14678e-06
1.14678e-06
1.14678e-06
1.14678e-06
1.14678e-06
1.14678e-06
1.14678e-06
1.14678e-06
1.14678e-06
1.14889e-06
1.14983e-06
1.14866e-06
1.14678e-06
1.14678e-06
1.14678e-06
1.14678e-06
1.14678e-06
1.14678e-06
1.14678e-06
1.14678e-06
1.14678e-06
1.1489e-06
1.14983e-06
1.14962e-06
1.14846e-06
1.14678e-06
1.14678e-06
1.14678e-06
1.14678e-06
1.14678e-06
1.14678e-06
1.14678e-06
1.14865e-06
1.14893e-06
1.14984e-06
1.14969e-06
1.14882e-06
1.14844e-06
1.14678e-06
1.14678e-06
1.14678e-06
1.14678e-06
1.14678e-06
1.14862e-06
1.14884e-06
1.149e-06
1.14966e-06
1.14882e-06
1.14846e-06
1.14678e-06
1.14678e-06
1.14678e-06
1.14865e-06
1.14884e-06
1.14897e-06
1.14983e-06
1.14966e-06
1.1489e-06
1.14892e-06
1.14889e-06
1.1489e-06
1.14893e-06
1.149e-06
1.14983e-06
1.14972e-06
1.14983e-06
1.14983e-06
1.14983e-06
1.14984e-06
1.13911e-06
1.13813e-06
1.13806e-06
1.13811e-06
1.13907e-06
1.13914e-06
1.13915e-06
1.13827e-06
1.13776e-06
1.13622e-06
1.13622e-06
1.13622e-06
1.13791e-06
1.13827e-06
1.1391e-06
1.13827e-06
1.13773e-06
1.13622e-06
1.13622e-06
1.13622e-06
1.13622e-06
1.13622e-06
1.13788e-06
1.13826e-06
1.13911e-06
1.13911e-06
1.13776e-06
1.13622e-06
1.13622e-06
1.13622e-06
1.13622e-06
1.13622e-06
1.13622e-06
1.13622e-06
1.1379e-06
1.13835e-06
1.13917e-06
1.13813e-06
1.13622e-06
1.13622e-06
1.13622e-06
1.13622e-06
1.13622e-06
1.13622e-06
1.13622e-06
1.13622e-06
1.13622e-06
1.13836e-06
1.13928e-06
1.13806e-06
1.13622e-06
1.13622e-06
1.13622e-06
1.13622e-06
1.13622e-06
1.13622e-06
1.13622e-06
1.13622e-06
1.13622e-06
1.13834e-06
1.13927e-06
1.13811e-06
1.13622e-06
1.13622e-06
1.13622e-06
1.13622e-06
1.13622e-06
1.13622e-06
1.13622e-06
1.13622e-06
1.13622e-06
1.13835e-06
1.13928e-06
1.13907e-06
1.13791e-06
1.13622e-06
1.13622e-06
1.13622e-06
1.13622e-06
1.13622e-06
1.13622e-06
1.13622e-06
1.1381e-06
1.13838e-06
1.13929e-06
1.13914e-06
1.13827e-06
1.13788e-06
1.13622e-06
1.13622e-06
1.13622e-06
1.13622e-06
1.13622e-06
1.13806e-06
1.13829e-06
1.13845e-06
1.1391e-06
1.13826e-06
1.1379e-06
1.13622e-06
1.13622e-06
1.13622e-06
1.1381e-06
1.13829e-06
1.13842e-06
1.13927e-06
1.13911e-06
1.13835e-06
1.13836e-06
1.13834e-06
1.13835e-06
1.13838e-06
1.13845e-06
1.13927e-06
1.13917e-06
1.13928e-06
1.13927e-06
1.13928e-06
1.13929e-06
1.12855e-06
1.12758e-06
1.1275e-06
1.12755e-06
1.12852e-06
1.12859e-06
1.1286e-06
1.12771e-06
1.12721e-06
1.12567e-06
1.12567e-06
1.12567e-06
1.12735e-06
1.12771e-06
1.12855e-06
1.12771e-06
1.12717e-06
1.12567e-06
1.12567e-06
1.12567e-06
1.12567e-06
1.12567e-06
1.12733e-06
1.12771e-06
1.12855e-06
1.12855e-06
1.12721e-06
1.12567e-06
1.12567e-06
1.12567e-06
1.12567e-06
1.12567e-06
1.12567e-06
1.12567e-06
1.12735e-06
1.12779e-06
1.12861e-06
1.12758e-06
1.12567e-06
1.12567e-06
1.12567e-06
1.12567e-06
1.12567e-06
1.12567e-06
1.12567e-06
1.12567e-06
1.12567e-06
1.12781e-06
1.12872e-06
1.1275e-06
1.12567e-06
1.12567e-06
1.12567e-06
1.12567e-06
1.12567e-06
1.12567e-06
1.12567e-06
1.12567e-06
1.12567e-06
1.12779e-06
1.12872e-06
1.12755e-06
1.12567e-06
1.12567e-06
1.12567e-06
1.12567e-06
1.12567e-06
1.12567e-06
1.12567e-06
1.12567e-06
1.12567e-06
1.12779e-06
1.12872e-06
1.12852e-06
1.12735e-06
1.12567e-06
1.12567e-06
1.12567e-06
1.12567e-06
1.12567e-06
1.12567e-06
1.12567e-06
1.12754e-06
1.12782e-06
1.12873e-06
1.12859e-06
1.12771e-06
1.12733e-06
1.12567e-06
1.12567e-06
1.12567e-06
1.12567e-06
1.12567e-06
1.12751e-06
1.12773e-06
1.12789e-06
1.12855e-06
1.12771e-06
1.12735e-06
1.12567e-06
1.12567e-06
1.12567e-06
1.12754e-06
1.12773e-06
1.12787e-06
1.12872e-06
1.12855e-06
1.12779e-06
1.12781e-06
1.12779e-06
1.12779e-06
1.12782e-06
1.12789e-06
1.12872e-06
1.12861e-06
1.12872e-06
1.12872e-06
1.12872e-06
1.12873e-06
1.118e-06
1.11702e-06
1.11695e-06
1.117e-06
1.11796e-06
1.11803e-06
1.11804e-06
1.11716e-06
1.11665e-06
1.11511e-06
1.11511e-06
1.11511e-06
1.1168e-06
1.11716e-06
1.118e-06
1.11716e-06
1.11662e-06
1.11511e-06
1.11511e-06
1.11511e-06
1.11511e-06
1.11511e-06
1.11677e-06
1.11715e-06
1.118e-06
1.118e-06
1.11665e-06
1.11511e-06
1.11511e-06
1.11511e-06
1.11511e-06
1.11511e-06
1.11511e-06
1.11511e-06
1.1168e-06
1.11724e-06
1.11806e-06
1.11702e-06
1.11511e-06
1.11511e-06
1.11511e-06
1.11511e-06
1.11511e-06
1.11511e-06
1.11511e-06
1.11511e-06
1.11511e-06
1.11725e-06
1.11817e-06
1.11695e-06
1.11511e-06
1.11511e-06
1.11511e-06
1.11511e-06
1.11511e-06
1.11511e-06
1.11511e-06
1.11511e-06
1.11511e-06
1.11723e-06
1.11816e-06
1.117e-06
1.11511e-06
1.11511e-06
1.11511e-06
1.11511e-06
1.11511e-06
1.11511e-06
1.11511e-06
1.11511e-06
1.11511e-06
1.11724e-06
1.11817e-06
1.11796e-06
1.1168e-06
1.11511e-06
1.11511e-06
1.11511e-06
1.11511e-06
1.11511e-06
1.11511e-06
1.11511e-06
1.11699e-06
1.11727e-06
1.11818e-06
1.11803e-06
1.11716e-06
1.11677e-06
1.11511e-06
1.11511e-06
1.11511e-06
1.11511e-06
1.11511e-06
1.11695e-06
1.11718e-06
1.11734e-06
1.118e-06
1.11715e-06
1.1168e-06
1.11511e-06
1.11511e-06
1.11511e-06
1.11699e-06
1.11718e-06
1.11731e-06
1.11817e-06
1.118e-06
1.11724e-06
1.11725e-06
1.11723e-06
1.11724e-06
1.11727e-06
1.11734e-06
1.11817e-06
1.11806e-06
1.11817e-06
1.11816e-06
1.11817e-06
1.11818e-06
1.10745e-06
1.10647e-06
1.10639e-06
1.10644e-06
1.10741e-06
1.10748e-06
1.10749e-06
1.1066e-06
1.1061e-06
1.10456e-06
1.10456e-06
1.10456e-06
1.10624e-06
1.1066e-06
1.10744e-06
1.1066e-06
1.10607e-06
1.10456e-06
1.10456e-06
1.10456e-06
1.10456e-06
1.10456e-06
1.10622e-06
1.1066e-06
1.10745e-06
1.10745e-06
1.1061e-06
1.10456e-06
1.10456e-06
1.10456e-06
1.10456e-06
1.10456e-06
1.10456e-06
1.10456e-06
1.10624e-06
1.10668e-06
1.1075e-06
1.10647e-06
1.10456e-06
1.10456e-06
1.10456e-06
1.10456e-06
1.10456e-06
1.10456e-06
1.10456e-06
1.10456e-06
1.10456e-06
1.1067e-06
1.10762e-06
1.10639e-06
1.10456e-06
1.10456e-06
1.10456e-06
1.10456e-06
1.10456e-06
1.10456e-06
1.10456e-06
1.10456e-06
1.10456e-06
1.10668e-06
1.10761e-06
1.10644e-06
1.10456e-06
1.10456e-06
1.10456e-06
1.10456e-06
1.10456e-06
1.10456e-06
1.10456e-06
1.10456e-06
1.10456e-06
1.10669e-06
1.10761e-06
1.10741e-06
1.10624e-06
1.10456e-06
1.10456e-06
1.10456e-06
1.10456e-06
1.10456e-06
1.10456e-06
1.10456e-06
1.10644e-06
1.10671e-06
1.10762e-06
1.10748e-06
1.1066e-06
1.10622e-06
1.10456e-06
1.10456e-06
1.10456e-06
1.10456e-06
1.10456e-06
1.1064e-06
1.10662e-06
1.10678e-06
1.10744e-06
1.1066e-06
1.10624e-06
1.10456e-06
1.10456e-06
1.10456e-06
1.10644e-06
1.10662e-06
1.10676e-06
1.10761e-06
1.10745e-06
1.10668e-06
1.1067e-06
1.10668e-06
1.10669e-06
1.10671e-06
1.10678e-06
1.10761e-06
1.1075e-06
1.10762e-06
1.10761e-06
1.10761e-06
1.10762e-06
1.09689e-06
1.09591e-06
1.09584e-06
1.09589e-06
1.09685e-06
1.09692e-06
1.09693e-06
1.09605e-06
1.09554e-06
1.094e-06
1.094e-06
1.094e-06
1.09569e-06
1.09605e-06
1.09689e-06
1.09605e-06
1.09551e-06
1.094e-06
1.09401e-06
1.094e-06
1.09401e-06
1.094e-06
1.09566e-06
1.09604e-06
1.09689e-06
1.09689e-06
1.09554e-06
1.094e-06
1.09401e-06
1.094e-06
1.094e-06
1.094e-06
1.09401e-06
1.094e-06
1.09569e-06
1.09613e-06
1.09695e-06
1.09591e-06
1.094e-06
1.09401e-06
1.094e-06
1.09401e-06
1.094e-06
1.09401e-06
1.094e-06
1.09401e-06
1.094e-06
1.09614e-06
1.09706e-06
1.09584e-06
1.094e-06
1.094e-06
1.094e-06
1.094e-06
1.094e-06
1.094e-06
1.094e-06
1.094e-06
1.094e-06
1.09612e-06
1.09706e-06
1.09589e-06
1.094e-06
1.09401e-06
1.094e-06
1.09401e-06
1.094e-06
1.09401e-06
1.094e-06
1.09401e-06
1.094e-06
1.09613e-06
1.09706e-06
1.09685e-06
1.09569e-06
1.094e-06
1.09401e-06
1.094e-06
1.094e-06
1.094e-06
1.09401e-06
1.094e-06
1.09588e-06
1.09616e-06
1.09707e-06
1.09692e-06
1.09605e-06
1.09566e-06
1.094e-06
1.09401e-06
1.094e-06
1.09401e-06
1.094e-06
1.09585e-06
1.09607e-06
1.09623e-06
1.09689e-06
1.09604e-06
1.09569e-06
1.094e-06
1.094e-06
1.094e-06
1.09588e-06
1.09607e-06
1.0962e-06
1.09706e-06
1.09689e-06
1.09613e-06
1.09614e-06
1.09612e-06
1.09613e-06
1.09616e-06
1.09623e-06
1.09706e-06
1.09695e-06
1.09706e-06
1.09706e-06
1.09706e-06
1.09707e-06
1.08634e-06
1.08536e-06
1.08528e-06
1.08533e-06
1.0863e-06
1.08637e-06
1.08638e-06
1.0855e-06
1.08499e-06
1.08345e-06
1.08345e-06
1.08345e-06
1.08513e-06
1.08549e-06
1.08633e-06
1.0855e-06
1.08496e-06
1.08345e-06
1.08345e-06
1.08345e-06
1.08345e-06
1.08345e-06
1.08511e-06
1.08549e-06
1.08634e-06
1.08634e-06
1.08499e-06
1.08345e-06
1.08345e-06
1.08345e-06
1.08345e-06
1.08345e-06
1.08345e-06
1.08345e-06
1.08513e-06
1.08557e-06
1.08639e-06
1.08536e-06
1.08345e-06
1.08345e-06
1.08345e-06
1.08345e-06
1.08345e-06
1.08345e-06
1.08345e-06
1.08345e-06
1.08345e-06
1.08559e-06
1.08651e-06
1.08528e-06
1.08345e-06
1.08345e-06
1.08345e-06
1.08345e-06
1.08345e-06
1.08345e-06
1.08345e-06
1.08345e-06
1.08345e-06
1.08557e-06
1.0865e-06
1.08533e-06
1.08345e-06
1.08345e-06
1.08345e-06
1.08345e-06
1.08345e-06
1.08345e-06
1.08345e-06
1.08345e-06
1.08345e-06
1.08558e-06
1.0865e-06
1.0863e-06
1.08513e-06
1.08345e-06
1.08345e-06
1.08345e-06
1.08345e-06
1.08345e-06
1.08345e-06
1.08345e-06
1.08533e-06
1.0856e-06
1.08651e-06
1.08637e-06
1.08549e-06
1.08511e-06
1.08345e-06
1.08345e-06
1.08345e-06
1.08345e-06
1.08345e-06
1.08529e-06
1.08551e-06
1.08567e-06
1.08633e-06
1.08549e-06
1.08513e-06
1.08345e-06
1.08345e-06
1.08345e-06
1.08533e-06
1.08551e-06
1.08565e-06
1.0865e-06
1.08634e-06
1.08557e-06
1.08559e-06
1.08557e-06
1.08558e-06
1.0856e-06
1.08567e-06
1.0865e-06
1.08639e-06
1.08651e-06
1.0865e-06
1.0865e-06
1.08651e-06
1.07578e-06
1.0748e-06
1.07473e-06
1.07478e-06
1.07574e-06
1.07581e-06
1.07582e-06
1.07494e-06
1.07444e-06
1.0729e-06
1.0729e-06
1.0729e-06
1.07458e-06
1.07494e-06
1.07578e-06
1.07494e-06
1.0744e-06
1.0729e-06
1.0729e-06
1.0729e-06
1.0729e-06
1.0729e-06
1.07455e-06
1.07494e-06
1.07578e-06
1.07578e-06
1.07444e-06
1.0729e-06
1.0729e-06
1.0729e-06
1.0729e-06
1.0729e-06
1.0729e-06
1.0729e-06
1.07458e-06
1.07502e-06
1.07584e-06
1.0748e-06
1.0729e-06
1.0729e-06
1.0729e-06
1.0729e-06
1.0729e-06
1.0729e-06
1.0729e-06
1.0729e-06
1.0729e-06
1.07503e-06
1.07595e-06
1.07473e-06
1.0729e-06
1.0729e-06
1.0729e-06
1.0729e-06
1.0729e-06
1.0729e-06
1.0729e-06
1.0729e-06
1.0729e-06
1.07501e-06
1.07595e-06
1.07478e-06
1.0729e-06
1.0729e-06
1.0729e-06
1.0729e-06
1.0729e-06
1.0729e-06
1.0729e-06
1.0729e-06
1.0729e-06
1.07502e-06
1.07595e-06
1.07574e-06
1.07458e-06
1.0729e-06
1.0729e-06
1.0729e-06
1.0729e-06
1.0729e-06
1.0729e-06
1.0729e-06
1.07477e-06
1.07505e-06
1.07596e-06
1.07581e-06
1.07494e-06
1.07455e-06
1.0729e-06
1.0729e-06
1.0729e-06
1.0729e-06
1.0729e-06
1.07474e-06
1.07496e-06
1.07512e-06
1.07578e-06
1.07494e-06
1.07458e-06
1.0729e-06
1.0729e-06
1.0729e-06
1.07477e-06
1.07496e-06
1.07509e-06
1.07595e-06
1.07578e-06
1.07502e-06
1.07503e-06
1.07501e-06
1.07502e-06
1.07505e-06
1.07512e-06
1.07595e-06
1.07584e-06
1.07595e-06
1.07595e-06
1.07595e-06
1.07596e-06
1.06523e-06
1.06425e-06
1.06418e-06
1.06423e-06
1.06519e-06
1.06526e-06
1.06527e-06
1.06439e-06
1.06388e-06
1.06234e-06
1.06234e-06
1.06234e-06
1.06402e-06
1.06438e-06
1.06522e-06
1.06439e-06
1.06385e-06
1.06234e-06
1.06234e-06
1.06234e-06
1.06234e-06
1.06234e-06
1.064e-06
1.06438e-06
1.06523e-06
1.06523e-06
1.06388e-06
1.06234e-06
1.06234e-06
1.06234e-06
1.06234e-06
1.06234e-06
1.06234e-06
1.06234e-06
1.06402e-06
1.06447e-06
1.06529e-06
1.06425e-06
1.06234e-06
1.06234e-06
1.06234e-06
1.06234e-06
1.06234e-06
1.06234e-06
1.06234e-06
1.06234e-06
1.06234e-06
1.06448e-06
1.0654e-06
1.06418e-06
1.06234e-06
1.06234e-06
1.06234e-06
1.06234e-06
1.06234e-06
1.06234e-06
1.06234e-06
1.06234e-06
1.06234e-06
1.06446e-06
1.06539e-06
1.06423e-06
1.06234e-06
1.06234e-06
1.06234e-06
1.06234e-06
1.06234e-06
1.06234e-06
1.06234e-06
1.06234e-06
1.06234e-06
1.06447e-06
1.06539e-06
1.06519e-06
1.06402e-06
1.06234e-06
1.06234e-06
1.06234e-06
1.06234e-06
1.06234e-06
1.06234e-06
1.06234e-06
1.06422e-06
1.0645e-06
1.0654e-06
1.06526e-06
1.06438e-06
1.064e-06
1.06234e-06
1.06234e-06
1.06234e-06
1.06234e-06
1.06234e-06
1.06418e-06
1.06441e-06
1.06456e-06
1.06522e-06
1.06438e-06
1.06402e-06
1.06234e-06
1.06234e-06
1.06234e-06
1.06422e-06
1.06441e-06
1.06454e-06
1.06539e-06
1.06523e-06
1.06447e-06
1.06448e-06
1.06446e-06
1.06447e-06
1.0645e-06
1.06456e-06
1.06539e-06
1.06529e-06
1.0654e-06
1.06539e-06
1.06539e-06
1.0654e-06
1.05467e-06
1.05369e-06
1.05362e-06
1.05367e-06
1.05463e-06
1.0547e-06
1.05471e-06
1.05383e-06
1.05333e-06
1.05179e-06
1.05179e-06
1.05179e-06
1.05347e-06
1.05383e-06
1.05467e-06
1.05383e-06
1.05329e-06
1.05179e-06
1.05179e-06
1.05179e-06
1.05179e-06
1.05179e-06
1.05344e-06
1.05383e-06
1.05467e-06
1.05467e-06
1.05333e-06
1.05179e-06
1.05179e-06
1.05179e-06
1.05179e-06
1.05179e-06
1.05179e-06
1.05179e-06
1.05347e-06
1.05391e-06
1.05473e-06
1.05369e-06
1.05179e-06
1.05179e-06
1.05179e-06
1.05179e-06
1.05179e-06
1.05179e-06
1.05179e-06
1.05179e-06
1.05179e-06
1.05393e-06
1.05484e-06
1.05362e-06
1.05179e-06
1.05179e-06
1.05179e-06
1.05179e-06
1.05179e-06
1.05179e-06
1.05179e-06
1.05179e-06
1.05179e-06
1.0539e-06
1.05484e-06
1.05367e-06
1.05179e-06
1.05179e-06
1.05179e-06
1.05179e-06
1.05179e-06
1.05179e-06
1.05179e-06
1.05179e-06
1.05179e-06
1.05391e-06
1.05484e-06
1.05463e-06
1.05347e-06
1.05179e-06
1.05179e-06
1.05179e-06
1.05179e-06
1.05179e-06
1.05179e-06
1.05179e-06
1.05366e-06
1.05394e-06
1.05485e-06
1.0547e-06
1.05383e-06
1.05344e-06
1.05179e-06
1.05179e-06
1.05179e-06
1.05179e-06
1.05179e-06
1.05363e-06
1.05385e-06
1.05401e-06
1.05467e-06
1.05383e-06
1.05347e-06
1.05179e-06
1.05179e-06
1.05179e-06
1.05366e-06
1.05385e-06
1.05398e-06
1.05484e-06
1.05467e-06
1.05391e-06
1.05393e-06
1.0539e-06
1.05391e-06
1.05394e-06
1.05401e-06
1.05484e-06
1.05473e-06
1.05484e-06
1.05484e-06
1.05484e-06
1.05485e-06
1.04412e-06
1.04314e-06
1.04307e-06
1.04312e-06
1.04408e-06
1.04415e-06
1.04416e-06
1.04328e-06
1.04277e-06
1.04123e-06
1.04123e-06
1.04123e-06
1.04292e-06
1.04328e-06
1.04411e-06
1.04328e-06
1.04274e-06
1.04123e-06
1.04123e-06
1.04123e-06
1.04123e-06
1.04123e-06
1.04289e-06
1.04327e-06
1.04412e-06
1.04412e-06
1.04277e-06
1.04123e-06
1.04123e-06
1.04123e-06
1.04123e-06
1.04123e-06
1.04123e-06
1.04123e-06
1.04291e-06
1.04336e-06
1.04418e-06
1.04314e-06
1.04123e-06
1.04123e-06
1.04123e-06
1.04123e-06
1.04123e-06
1.04123e-06
1.04123e-06
1.04123e-06
1.04123e-06
1.04337e-06
1.04429e-06
1.04307e-06
1.04123e-06
1.04123e-06
1.04123e-06
1.04123e-06
1.04123e-06
1.04123e-06
1.04123e-06
1.04123e-06
1.04123e-06
1.04335e-06
1.04428e-06
1.04312e-06
1.04123e-06
1.04123e-06
1.04123e-06
1.04123e-06
1.04123e-06
1.04123e-06
1.04123e-06
1.04123e-06
1.04123e-06
1.04336e-06
1.04429e-06
1.04408e-06
1.04291e-06
1.04123e-06
1.04123e-06