/*--------------------------------*- C++ -*----------------------------------*\
| =========                 |                                                 |
| \\      /  F ield         | OpenFOAM: The Open Source CFD Toolbox           |
|  \\    /   O peration     | Version:  v2012                                 |
|   \\  /    A nd           | Website:  www.openfoam.com                      |
|    \\/     M anipulation  |                                                 |
\*---------------------------------------------------------------------------*/
FoamFile
{
    version     2.0;
    format      ascii;
    class       volScalarField;
    location    "66";
    object      p;
}
// * * * * * * * * * * * * * * * * * * * * * * * * * * * * * * * * * * * * * //

dimensions      [0 2 -2 0 0 0 0];


internalField   nonuniform List<scalar> 
292667
(
1.08348e-06
1.07447e-06
1.07378e-06
1.07384e-06
1.07476e-06
1.08434e-06
1.07467e-06
1.07232e-06
1.07094e-06
1.07036e-06
1.07044e-06
1.07118e-06
1.07277e-06
1.07533e-06
1.07467e-06
1.07164e-06
1.06972e-06
1.06867e-06
1.06822e-06
1.06828e-06
1.06886e-06
1.07008e-06
1.07223e-06
1.0755e-06
1.08348e-06
1.07232e-06
1.06972e-06
1.06817e-06
1.0673e-06
1.06693e-06
1.06698e-06
1.06746e-06
1.06847e-06
1.07023e-06
1.07313e-06
1.08297e-06
1.07447e-06
1.07094e-06
1.06867e-06
1.0673e-06
1.06653e-06
1.06619e-06
1.06624e-06
1.06668e-06
1.06757e-06
1.06912e-06
1.07169e-06
1.07784e-06
1.07378e-06
1.07036e-06
1.06822e-06
1.06693e-06
1.06619e-06
1.06587e-06
1.06592e-06
1.06634e-06
1.06719e-06
1.06866e-06
1.07109e-06
1.07631e-06
1.07384e-06
1.07044e-06
1.06828e-06
1.06698e-06
1.06624e-06
1.06592e-06
1.06596e-06
1.06638e-06
1.06725e-06
1.06873e-06
1.07118e-06
1.07661e-06
1.07476e-06
1.07118e-06
1.06886e-06
1.06746e-06
1.06668e-06
1.06634e-06
1.06638e-06
1.06683e-06
1.06775e-06
1.06934e-06
1.07197e-06
1.07813e-06
1.08434e-06
1.07277e-06
1.07008e-06
1.06847e-06
1.06757e-06
1.06719e-06
1.06725e-06
1.06775e-06
1.0688e-06
1.07064e-06
1.07364e-06
1.08283e-06
1.07533e-06
1.07223e-06
1.07023e-06
1.06912e-06
1.06866e-06
1.06873e-06
1.06934e-06
1.07064e-06
1.07291e-06
1.0788e-06
1.0755e-06
1.07313e-06
1.07169e-06
1.07109e-06
1.07118e-06
1.07197e-06
1.07364e-06
1.0788e-06
1.08297e-06
1.07784e-06
1.07631e-06
1.07661e-06
1.07813e-06
1.08283e-06
1.05905e-06
1.05837e-06
1.05834e-06
1.05839e-06
1.05908e-06
1.05894e-06
1.05909e-06
1.05856e-06
1.05822e-06
1.05703e-06
1.05701e-06
1.05703e-06
1.05838e-06
1.05862e-06
1.05914e-06
1.05856e-06
1.0582e-06
1.05707e-06
1.05702e-06
1.05707e-06
1.05702e-06
1.05707e-06
1.05836e-06
1.0586e-06
1.05912e-06
1.05905e-06
1.05822e-06
1.05707e-06
1.05701e-06
1.05704e-06
1.05702e-06
1.05704e-06
1.05701e-06
1.05707e-06
1.05836e-06
1.05863e-06
1.05914e-06
1.05837e-06
1.05703e-06
1.05702e-06
1.05704e-06
1.057e-06
1.057e-06
1.057e-06
1.05704e-06
1.05702e-06
1.05703e-06
1.05879e-06
1.05931e-06
1.05834e-06
1.05701e-06
1.05707e-06
1.05702e-06
1.057e-06
1.05699e-06
1.057e-06
1.05702e-06
1.05707e-06
1.05701e-06
1.05881e-06
1.05925e-06
1.05839e-06
1.05703e-06
1.05702e-06
1.05704e-06
1.057e-06
1.057e-06
1.057e-06
1.05704e-06
1.05702e-06
1.05703e-06
1.0588e-06
1.05927e-06
1.05908e-06
1.05838e-06
1.05707e-06
1.05701e-06
1.05704e-06
1.05702e-06
1.05704e-06
1.05701e-06
1.05707e-06
1.05856e-06
1.0587e-06
1.05927e-06
1.05894e-06
1.05862e-06
1.05836e-06
1.05707e-06
1.05702e-06
1.05707e-06
1.05702e-06
1.05707e-06
1.05853e-06
1.05867e-06
1.05866e-06
1.05914e-06
1.0586e-06
1.05836e-06
1.05703e-06
1.05701e-06
1.05703e-06
1.05856e-06
1.05867e-06
1.0587e-06
1.05923e-06
1.05912e-06
1.05863e-06
1.05879e-06
1.05881e-06
1.0588e-06
1.0587e-06
1.05866e-06
1.05923e-06
1.05914e-06
1.05931e-06
1.05925e-06
1.05927e-06
1.05927e-06
1.05005e-06
1.04932e-06
1.04926e-06
1.04931e-06
1.05006e-06
1.05008e-06
1.05007e-06
1.04943e-06
1.04903e-06
1.04788e-06
1.04788e-06
1.04788e-06
1.04919e-06
1.04946e-06
1.05007e-06
1.04943e-06
1.04901e-06
1.04792e-06
1.04793e-06
1.04796e-06
1.04793e-06
1.04792e-06
1.04919e-06
1.04946e-06
1.05007e-06
1.05005e-06
1.04903e-06
1.04792e-06
1.04794e-06
1.04799e-06
1.04798e-06
1.04799e-06
1.04794e-06
1.04792e-06
1.0492e-06
1.04953e-06
1.0501e-06
1.04932e-06
1.04788e-06
1.04793e-06
1.04799e-06
1.04799e-06
1.04801e-06
1.04799e-06
1.04799e-06
1.04793e-06
1.04788e-06
1.04959e-06
1.05024e-06
1.04926e-06
1.04788e-06
1.04796e-06
1.04798e-06
1.04801e-06
1.04802e-06
1.04801e-06
1.04798e-06
1.04796e-06
1.04788e-06
1.0496e-06
1.05026e-06
1.04931e-06
1.04788e-06
1.04793e-06
1.04799e-06
1.04799e-06
1.04801e-06
1.04799e-06
1.04799e-06
1.04793e-06
1.04788e-06
1.04959e-06
1.05026e-06
1.05006e-06
1.04919e-06
1.04792e-06
1.04794e-06
1.04799e-06
1.04798e-06
1.04799e-06
1.04794e-06
1.04792e-06
1.04941e-06
1.04957e-06
1.05024e-06
1.05008e-06
1.04946e-06
1.04919e-06
1.04792e-06
1.04793e-06
1.04796e-06
1.04793e-06
1.04792e-06
1.04938e-06
1.04952e-06
1.0496e-06
1.05007e-06
1.04946e-06
1.0492e-06
1.04788e-06
1.04788e-06
1.04788e-06
1.0494e-06
1.04952e-06
1.04959e-06
1.05021e-06
1.05007e-06
1.04953e-06
1.04959e-06
1.0496e-06
1.04959e-06
1.04957e-06
1.0496e-06
1.05021e-06
1.0501e-06
1.05024e-06
1.05026e-06
1.05026e-06
1.05024e-06
1.04107e-06
1.04033e-06
1.04027e-06
1.04032e-06
1.04108e-06
1.0411e-06
1.04109e-06
1.04044e-06
1.04002e-06
1.03885e-06
1.03885e-06
1.03885e-06
1.04017e-06
1.04046e-06
1.04109e-06
1.04044e-06
1.03999e-06
1.03887e-06
1.03889e-06
1.0389e-06
1.03889e-06
1.03887e-06
1.04015e-06
1.04046e-06
1.0411e-06
1.04107e-06
1.04002e-06
1.03887e-06
1.0389e-06
1.03893e-06
1.03893e-06
1.03893e-06
1.0389e-06
1.03887e-06
1.04017e-06
1.04053e-06
1.04112e-06
1.04033e-06
1.03885e-06
1.03889e-06
1.03893e-06
1.03894e-06
1.03896e-06
1.03894e-06
1.03893e-06
1.03889e-06
1.03885e-06
1.04059e-06
1.04126e-06
1.04027e-06
1.03885e-06
1.0389e-06
1.03893e-06
1.03896e-06
1.03896e-06
1.03896e-06
1.03893e-06
1.0389e-06
1.03885e-06
1.04059e-06
1.04128e-06
1.04032e-06
1.03885e-06
1.03889e-06
1.03893e-06
1.03894e-06
1.03896e-06
1.03894e-06
1.03893e-06
1.03889e-06
1.03885e-06
1.04059e-06
1.04128e-06
1.04108e-06
1.04017e-06
1.03887e-06
1.0389e-06
1.03893e-06
1.03893e-06
1.03893e-06
1.0389e-06
1.03887e-06
1.04038e-06
1.04058e-06
1.04126e-06
1.0411e-06
1.04046e-06
1.04015e-06
1.03887e-06
1.03889e-06
1.0389e-06
1.03889e-06
1.03887e-06
1.04036e-06
1.04051e-06
1.04062e-06
1.04109e-06
1.04046e-06
1.04017e-06
1.03885e-06
1.03885e-06
1.03885e-06
1.04038e-06
1.04051e-06
1.0406e-06
1.04124e-06
1.0411e-06
1.04053e-06
1.04059e-06
1.04059e-06
1.04059e-06
1.04058e-06
1.04062e-06
1.04124e-06
1.04112e-06
1.04126e-06
1.04128e-06
1.04128e-06
1.04126e-06
1.03209e-06
1.03135e-06
1.03128e-06
1.03133e-06
1.0321e-06
1.03212e-06
1.03211e-06
1.03145e-06
1.03102e-06
1.02985e-06
1.02985e-06
1.02985e-06
1.03117e-06
1.03147e-06
1.03211e-06
1.03145e-06
1.03099e-06
1.02986e-06
1.02987e-06
1.02988e-06
1.02987e-06
1.02986e-06
1.03115e-06
1.03147e-06
1.03212e-06
1.03209e-06
1.03102e-06
1.02986e-06
1.02988e-06
1.02989e-06
1.0299e-06
1.02989e-06
1.02988e-06
1.02986e-06
1.03118e-06
1.03155e-06
1.03214e-06
1.03135e-06
1.02985e-06
1.02987e-06
1.02989e-06
1.02991e-06
1.02992e-06
1.02991e-06
1.02989e-06
1.02987e-06
1.02985e-06
1.0316e-06
1.03228e-06
1.03128e-06
1.02985e-06
1.02988e-06
1.0299e-06
1.02992e-06
1.02992e-06
1.02992e-06
1.0299e-06
1.02988e-06
1.02985e-06
1.0316e-06
1.0323e-06
1.03133e-06
1.02985e-06
1.02987e-06
1.02989e-06
1.02991e-06
1.02992e-06
1.02991e-06
1.02989e-06
1.02987e-06
1.02985e-06
1.0316e-06
1.0323e-06
1.0321e-06
1.03117e-06
1.02986e-06
1.02988e-06
1.02989e-06
1.0299e-06
1.02989e-06
1.02988e-06
1.02986e-06
1.03139e-06
1.0316e-06
1.03228e-06
1.03212e-06
1.03147e-06
1.03115e-06
1.02986e-06
1.02987e-06
1.02988e-06
1.02987e-06
1.02986e-06
1.03136e-06
1.03152e-06
1.03164e-06
1.03211e-06
1.03147e-06
1.03118e-06
1.02985e-06
1.02985e-06
1.02985e-06
1.03139e-06
1.03152e-06
1.03162e-06
1.03226e-06
1.03212e-06
1.03155e-06
1.0316e-06
1.0316e-06
1.0316e-06
1.0316e-06
1.03164e-06
1.03226e-06
1.03214e-06
1.03228e-06
1.0323e-06
1.0323e-06
1.03228e-06
1.02311e-06
1.02236e-06
1.0223e-06
1.02235e-06
1.02311e-06
1.02314e-06
1.02312e-06
1.02247e-06
1.02204e-06
1.02086e-06
1.02086e-06
1.02086e-06
1.02219e-06
1.02248e-06
1.02313e-06
1.02247e-06
1.022e-06
1.02086e-06
1.02087e-06
1.02087e-06
1.02087e-06
1.02086e-06
1.02216e-06
1.02248e-06
1.02313e-06
1.02311e-06
1.02203e-06
1.02086e-06
1.02087e-06
1.02088e-06
1.02088e-06
1.02088e-06
1.02087e-06
1.02086e-06
1.02219e-06
1.02257e-06
1.02316e-06
1.02236e-06
1.02086e-06
1.02087e-06
1.02088e-06
1.02089e-06
1.0209e-06
1.02089e-06
1.02088e-06
1.02087e-06
1.02086e-06
1.02262e-06
1.0233e-06
1.0223e-06
1.02086e-06
1.02087e-06
1.02088e-06
1.0209e-06
1.0209e-06
1.0209e-06
1.02088e-06
1.02087e-06
1.02086e-06
1.02261e-06
1.02332e-06
1.02235e-06
1.02086e-06
1.02087e-06
1.02088e-06
1.02089e-06
1.0209e-06
1.02089e-06
1.02088e-06
1.02087e-06
1.02086e-06
1.02261e-06
1.02332e-06
1.02311e-06
1.02218e-06
1.02086e-06
1.02087e-06
1.02088e-06
1.02088e-06
1.02088e-06
1.02087e-06
1.02086e-06
1.0224e-06
1.02261e-06
1.02329e-06
1.02314e-06
1.02248e-06
1.02216e-06
1.02086e-06
1.02087e-06
1.02087e-06
1.02087e-06
1.02086e-06
1.02237e-06
1.02253e-06
1.02266e-06
1.02313e-06
1.02248e-06
1.02219e-06
1.02086e-06
1.02086e-06
1.02086e-06
1.0224e-06
1.02253e-06
1.02263e-06
1.02327e-06
1.02313e-06
1.02257e-06
1.02262e-06
1.02261e-06
1.02261e-06
1.02261e-06
1.02266e-06
1.02327e-06
1.02316e-06
1.0233e-06
1.02332e-06
1.02332e-06
1.02329e-06
1.01412e-06
1.01338e-06
1.01331e-06
1.01336e-06
1.01413e-06
1.01416e-06
1.01414e-06
1.01348e-06
1.01305e-06
1.01187e-06
1.01187e-06
1.01187e-06
1.0132e-06
1.0135e-06
1.01415e-06
1.01348e-06
1.01301e-06
1.01187e-06
1.01188e-06
1.01188e-06
1.01188e-06
1.01187e-06
1.01318e-06
1.0135e-06
1.01415e-06
1.01412e-06
1.01305e-06
1.01187e-06
1.01188e-06
1.01188e-06
1.01188e-06
1.01188e-06
1.01188e-06
1.01187e-06
1.0132e-06
1.01358e-06
1.01417e-06
1.01338e-06
1.01187e-06
1.01188e-06
1.01188e-06
1.01189e-06
1.01189e-06
1.01189e-06
1.01188e-06
1.01188e-06
1.01187e-06
1.01363e-06
1.01432e-06
1.01331e-06
1.01187e-06
1.01188e-06
1.01188e-06
1.01189e-06
1.01189e-06
1.01189e-06
1.01188e-06
1.01188e-06
1.01187e-06
1.01362e-06
1.01433e-06
1.01336e-06
1.01187e-06
1.01188e-06
1.01188e-06
1.01189e-06
1.01189e-06
1.01189e-06
1.01188e-06
1.01188e-06
1.01187e-06
1.01363e-06
1.01433e-06
1.01413e-06
1.0132e-06
1.01187e-06
1.01188e-06
1.01188e-06
1.01188e-06
1.01188e-06
1.01188e-06
1.01187e-06
1.01342e-06
1.01363e-06
1.01431e-06
1.01416e-06
1.0135e-06
1.01318e-06
1.01187e-06
1.01188e-06
1.01188e-06
1.01188e-06
1.01187e-06
1.01338e-06
1.01355e-06
1.01367e-06
1.01415e-06
1.0135e-06
1.0132e-06
1.01187e-06
1.01187e-06
1.01187e-06
1.01342e-06
1.01355e-06
1.01365e-06
1.01429e-06
1.01415e-06
1.01358e-06
1.01363e-06
1.01362e-06
1.01363e-06
1.01363e-06
1.01367e-06
1.01429e-06
1.01417e-06
1.01432e-06
1.01433e-06
1.01433e-06
1.01431e-06
1.00514e-06
1.00439e-06
1.00433e-06
1.00438e-06
1.00515e-06
1.00517e-06
1.00516e-06
1.0045e-06
1.00406e-06
1.00288e-06
1.00288e-06
1.00288e-06
1.00421e-06
1.00451e-06
1.00516e-06
1.0045e-06
1.00403e-06
1.00288e-06
1.00289e-06
1.00289e-06
1.00289e-06
1.00288e-06
1.00419e-06
1.00451e-06
1.00516e-06
1.00514e-06
1.00406e-06
1.00288e-06
1.00289e-06
1.00289e-06
1.00289e-06
1.00289e-06
1.00289e-06
1.00288e-06
1.00422e-06
1.0046e-06
1.00519e-06
1.00439e-06
1.00288e-06
1.00289e-06
1.00289e-06
1.00289e-06
1.00289e-06
1.00289e-06
1.00289e-06
1.00289e-06
1.00288e-06
1.00465e-06
1.00533e-06
1.00433e-06
1.00288e-06
1.00289e-06
1.00289e-06
1.00289e-06
1.00289e-06
1.00289e-06
1.00289e-06
1.00289e-06
1.00288e-06
1.00464e-06
1.00535e-06
1.00438e-06
1.00288e-06
1.00289e-06
1.00289e-06
1.00289e-06
1.00289e-06
1.00289e-06
1.00289e-06
1.00289e-06
1.00288e-06
1.00464e-06
1.00535e-06
1.00515e-06
1.00421e-06
1.00288e-06
1.00289e-06
1.00289e-06
1.00289e-06
1.00289e-06
1.00289e-06
1.00288e-06
1.00443e-06
1.00464e-06
1.00532e-06
1.00517e-06
1.00451e-06
1.00419e-06
1.00288e-06
1.00289e-06
1.00289e-06
1.00289e-06
1.00288e-06
1.0044e-06
1.00456e-06
1.00469e-06
1.00516e-06
1.00451e-06
1.00422e-06
1.00288e-06
1.00288e-06
1.00288e-06
1.00443e-06
1.00456e-06
1.00467e-06
1.00531e-06
1.00516e-06
1.0046e-06
1.00465e-06
1.00464e-06
1.00464e-06
1.00464e-06
1.00469e-06
1.00531e-06
1.00519e-06
1.00533e-06
1.00535e-06
1.00535e-06
1.00532e-06
9.96154e-07
9.95407e-07
9.95344e-07
9.95392e-07
9.96161e-07
9.96187e-07
9.96172e-07
9.95512e-07
9.95078e-07
9.93896e-07
9.93896e-07
9.93896e-07
9.95229e-07
9.95529e-07
9.96177e-07
9.95512e-07
9.95042e-07
9.93897e-07
9.93899e-07
9.93899e-07
9.93899e-07
9.93897e-07
9.95206e-07
9.95526e-07
9.9618e-07
9.96154e-07
9.95078e-07
9.93897e-07
9.93899e-07
9.939e-07
9.93901e-07
9.939e-07
9.93899e-07
9.93897e-07
9.95231e-07
9.95612e-07
9.96202e-07
9.95407e-07
9.93896e-07
9.93899e-07
9.939e-07
9.93902e-07
9.93903e-07
9.93902e-07
9.939e-07
9.93899e-07
9.93896e-07
9.95664e-07
9.96348e-07
9.95344e-07
9.93896e-07
9.93899e-07
9.93901e-07
9.93903e-07
9.93903e-07
9.93903e-07
9.93901e-07
9.93899e-07
9.93896e-07
9.95654e-07
9.96364e-07
9.95392e-07
9.93896e-07
9.93899e-07
9.939e-07
9.93902e-07
9.93903e-07
9.93902e-07
9.939e-07
9.93899e-07
9.93896e-07
9.95658e-07
9.96364e-07
9.96161e-07
9.95229e-07
9.93897e-07
9.93899e-07
9.939e-07
9.93901e-07
9.939e-07
9.93899e-07
9.93897e-07
9.95445e-07
9.95659e-07
9.9634e-07
9.96187e-07
9.95529e-07
9.95206e-07
9.93897e-07
9.93899e-07
9.93899e-07
9.93899e-07
9.93897e-07
9.95412e-07
9.95578e-07
9.95705e-07
9.96177e-07
9.95527e-07
9.95231e-07
9.93896e-07
9.93896e-07
9.93896e-07
9.95445e-07
9.95578e-07
9.95681e-07
9.96322e-07
9.9618e-07
9.95612e-07
9.95664e-07
9.95654e-07
9.95658e-07
9.95659e-07
9.95705e-07
9.96322e-07
9.96202e-07
9.96348e-07
9.96364e-07
9.96364e-07
9.9634e-07
9.8717e-07
9.86422e-07
9.86359e-07
9.86407e-07
9.87176e-07
9.87202e-07
9.87187e-07
9.86527e-07
9.86093e-07
9.8491e-07
9.84911e-07
9.8491e-07
9.86244e-07
9.86544e-07
9.87192e-07
9.86528e-07
9.86057e-07
9.84911e-07
9.84913e-07
9.84912e-07
9.84913e-07
9.84911e-07
9.86221e-07
9.86542e-07
9.87196e-07
9.8717e-07
9.86093e-07
9.84911e-07
9.84912e-07
9.84913e-07
9.84914e-07
9.84913e-07
9.84912e-07
9.84911e-07
9.86246e-07
9.86627e-07
9.87217e-07
9.86422e-07
9.8491e-07
9.84913e-07
9.84913e-07
9.84914e-07
9.84914e-07
9.84914e-07
9.84913e-07
9.84913e-07
9.8491e-07
9.86679e-07
9.87363e-07
9.86359e-07
9.84911e-07
9.84912e-07
9.84914e-07
9.84914e-07
9.84915e-07
9.84914e-07
9.84914e-07
9.84912e-07
9.84911e-07
9.86669e-07
9.87379e-07
9.86407e-07
9.8491e-07
9.84913e-07
9.84913e-07
9.84914e-07
9.84914e-07
9.84914e-07
9.84913e-07
9.84913e-07
9.8491e-07
9.86673e-07
9.87379e-07
9.87176e-07
9.86244e-07
9.84911e-07
9.84912e-07
9.84913e-07
9.84914e-07
9.84913e-07
9.84912e-07
9.84911e-07
9.8646e-07
9.86674e-07
9.87355e-07
9.87202e-07
9.86544e-07
9.86221e-07
9.84911e-07
9.84912e-07
9.84912e-07
9.84912e-07
9.84911e-07
9.86427e-07
9.86593e-07
9.8672e-07
9.87192e-07
9.86542e-07
9.86246e-07
9.8491e-07
9.84911e-07
9.8491e-07
9.86459e-07
9.86593e-07
9.86696e-07
9.87337e-07
9.87196e-07
9.86627e-07
9.86679e-07
9.86669e-07
9.86673e-07
9.86674e-07
9.8672e-07
9.87337e-07
9.87217e-07
9.87363e-07
9.87379e-07
9.87379e-07
9.87355e-07
9.78185e-07
9.77437e-07
9.77374e-07
9.77422e-07
9.78192e-07
9.78217e-07
9.78203e-07
9.77543e-07
9.77108e-07
9.75925e-07
9.75926e-07
9.75925e-07
9.77259e-07
9.77559e-07
9.78207e-07
9.77543e-07
9.77072e-07
9.75925e-07
9.75927e-07
9.75926e-07
9.75927e-07
9.75926e-07
9.77236e-07
9.77557e-07
9.78211e-07
9.78185e-07
9.77108e-07
9.75925e-07
9.75927e-07
9.75927e-07
9.75927e-07
9.75927e-07
9.75927e-07
9.75925e-07
9.77261e-07
9.77642e-07
9.78232e-07
9.77437e-07
9.75925e-07
9.75927e-07
9.75927e-07
9.75928e-07
9.75927e-07
9.75928e-07
9.75927e-07
9.75927e-07
9.75925e-07
9.77694e-07
9.78378e-07
9.77374e-07
9.75926e-07
9.75926e-07
9.75927e-07
9.75927e-07
9.75928e-07
9.75927e-07
9.75927e-07
9.75926e-07
9.75926e-07
9.77684e-07
9.78394e-07
9.77422e-07
9.75925e-07
9.75927e-07
9.75927e-07
9.75928e-07
9.75927e-07
9.75928e-07
9.75927e-07
9.75927e-07
9.75925e-07
9.77688e-07
9.78394e-07
9.78192e-07
9.77259e-07
9.75925e-07
9.75927e-07
9.75927e-07
9.75927e-07
9.75927e-07
9.75927e-07
9.75925e-07
9.77475e-07
9.77689e-07
9.7837e-07
9.78217e-07
9.77559e-07
9.77236e-07
9.75925e-07
9.75927e-07
9.75926e-07
9.75927e-07
9.75925e-07
9.77441e-07
9.77608e-07
9.77735e-07
9.78207e-07
9.77557e-07
9.77261e-07
9.75925e-07
9.75926e-07
9.75925e-07
9.77475e-07
9.77608e-07
9.77711e-07
9.78352e-07
9.78211e-07
9.77642e-07
9.77694e-07
9.77684e-07
9.77687e-07
9.77689e-07
9.77735e-07
9.78352e-07
9.78232e-07
9.78378e-07
9.78394e-07
9.78394e-07
9.7837e-07
9.692e-07
9.68452e-07
9.68389e-07
9.68437e-07
9.69207e-07
9.69232e-07
9.69218e-07
9.68558e-07
9.68123e-07
9.6694e-07
9.6694e-07
9.6694e-07
9.68274e-07
9.68574e-07
9.69223e-07
9.68558e-07
9.68087e-07
9.6694e-07
9.66942e-07
9.66941e-07
9.66942e-07
9.6694e-07
9.68251e-07
9.68572e-07
9.69226e-07
9.692e-07
9.68123e-07
9.6694e-07
9.66941e-07
9.66941e-07
9.66941e-07
9.66941e-07
9.66941e-07
9.6694e-07
9.68276e-07
9.68657e-07
9.69248e-07
9.68452e-07
9.6694e-07
9.66942e-07
9.66941e-07
9.66942e-07
9.66941e-07
9.66942e-07
9.66941e-07
9.66942e-07
9.6694e-07
9.6871e-07
9.69393e-07
9.68389e-07
9.6694e-07
9.66941e-07
9.66941e-07
9.66941e-07
9.66942e-07
9.66941e-07
9.66941e-07
9.66941e-07
9.6694e-07
9.68699e-07
9.69409e-07
9.68437e-07
9.6694e-07
9.66942e-07
9.66941e-07
9.66942e-07
9.66941e-07
9.66942e-07
9.66941e-07
9.66942e-07
9.6694e-07
9.68703e-07
9.69409e-07
9.69207e-07
9.68274e-07
9.6694e-07
9.66941e-07
9.66941e-07
9.66941e-07
9.66941e-07
9.66941e-07
9.6694e-07
9.6849e-07
9.68704e-07
9.69385e-07
9.69232e-07
9.68574e-07
9.68251e-07
9.6694e-07
9.66942e-07
9.66941e-07
9.66942e-07
9.6694e-07
9.68457e-07
9.68623e-07
9.6875e-07
9.69223e-07
9.68572e-07
9.68276e-07
9.6694e-07
9.6694e-07
9.6694e-07
9.6849e-07
9.68623e-07
9.68726e-07
9.69367e-07
9.69226e-07
9.68657e-07
9.68709e-07
9.68699e-07
9.68703e-07
9.68704e-07
9.6875e-07
9.69367e-07
9.69248e-07
9.69393e-07
9.69409e-07
9.69409e-07
9.69385e-07
9.60215e-07
9.59467e-07
9.59404e-07
9.59452e-07
9.60222e-07
9.60247e-07
9.60233e-07
9.59573e-07
9.59138e-07
9.57955e-07
9.57955e-07
9.57955e-07
9.59289e-07
9.59589e-07
9.60238e-07
9.59573e-07
9.59102e-07
9.57955e-07
9.57957e-07
9.57956e-07
9.57957e-07
9.57955e-07
9.59266e-07
9.59587e-07
9.60241e-07
9.60215e-07
9.59138e-07
9.57955e-07
9.57956e-07
9.57956e-07
9.57956e-07
9.57956e-07
9.57956e-07
9.57955e-07
9.59291e-07
9.59672e-07
9.60263e-07
9.59467e-07
9.57955e-07
9.57957e-07
9.57956e-07
9.57957e-07
9.57956e-07
9.57957e-07
9.57956e-07
9.57957e-07
9.57955e-07
9.59725e-07
9.60408e-07
9.59404e-07
9.57955e-07
9.57956e-07
9.57956e-07
9.57956e-07
9.57957e-07
9.57956e-07
9.57956e-07
9.57956e-07
9.57956e-07
9.59714e-07
9.60424e-07
9.59452e-07
9.57955e-07
9.57957e-07
9.57956e-07
9.57957e-07
9.57956e-07
9.57957e-07
9.57956e-07
9.57957e-07
9.57955e-07
9.59718e-07
9.60425e-07
9.60222e-07
9.59289e-07
9.57955e-07
9.57956e-07
9.57956e-07
9.57956e-07
9.57956e-07
9.57956e-07
9.57955e-07
9.59505e-07
9.59719e-07
9.604e-07
9.60247e-07
9.59589e-07
9.59266e-07
9.57955e-07
9.57957e-07
9.57956e-07
9.57957e-07
9.57955e-07
9.59471e-07
9.59638e-07
9.59766e-07
9.60238e-07
9.59587e-07
9.59291e-07
9.57955e-07
9.57955e-07
9.57955e-07
9.59505e-07
9.59638e-07
9.59741e-07
9.60382e-07
9.60241e-07
9.59672e-07
9.59725e-07
9.59714e-07
9.59718e-07
9.59719e-07
9.59765e-07
9.60382e-07
9.60263e-07
9.60408e-07
9.60424e-07
9.60424e-07
9.604e-07
9.5123e-07
9.50482e-07
9.50419e-07
9.50467e-07
9.51237e-07
9.51262e-07
9.51248e-07
9.50588e-07
9.50153e-07
9.4897e-07
9.48971e-07
9.4897e-07
9.50304e-07
9.50604e-07
9.51253e-07
9.50588e-07
9.50117e-07
9.4897e-07
9.48972e-07
9.48971e-07
9.48972e-07
9.4897e-07
9.50281e-07
9.50602e-07
9.51256e-07
9.5123e-07
9.50153e-07
9.4897e-07
9.48971e-07
9.48971e-07
9.48971e-07
9.48971e-07
9.48971e-07
9.4897e-07
9.50306e-07
9.50688e-07
9.51278e-07
9.50482e-07
9.4897e-07
9.48972e-07
9.48971e-07
9.48972e-07
9.48971e-07
9.48972e-07
9.48971e-07
9.48972e-07
9.4897e-07
9.5074e-07
9.51423e-07
9.50419e-07
9.48971e-07
9.48971e-07
9.48971e-07
9.48971e-07
9.48971e-07
9.48971e-07
9.48971e-07
9.48971e-07
9.48971e-07
9.5073e-07
9.51439e-07
9.50467e-07
9.4897e-07
9.48972e-07
9.48971e-07
9.48972e-07
9.48971e-07
9.48972e-07
9.48971e-07
9.48972e-07
9.4897e-07
9.50733e-07
9.5144e-07
9.51237e-07
9.50304e-07
9.4897e-07
9.48971e-07
9.48971e-07
9.48971e-07
9.48971e-07
9.48971e-07
9.4897e-07
9.5052e-07
9.50734e-07
9.51415e-07
9.51262e-07
9.50604e-07
9.50281e-07
9.4897e-07
9.48972e-07
9.48971e-07
9.48972e-07
9.4897e-07
9.50487e-07
9.50654e-07
9.50781e-07
9.51253e-07
9.50602e-07
9.50306e-07
9.4897e-07
9.48971e-07
9.4897e-07
9.5052e-07
9.50654e-07
9.50756e-07
9.51397e-07
9.51256e-07
9.50688e-07
9.5074e-07
9.50729e-07
9.50733e-07
9.50734e-07
9.50781e-07
9.51397e-07
9.51278e-07
9.51423e-07
9.51439e-07
9.5144e-07
9.51415e-07
9.42245e-07
9.41497e-07
9.41434e-07
9.41482e-07
9.42252e-07
9.42277e-07
9.42263e-07
9.41603e-07
9.41168e-07
9.39985e-07
9.39986e-07
9.39985e-07
9.41319e-07
9.41619e-07
9.42268e-07
9.41603e-07
9.41132e-07
9.39985e-07
9.39987e-07
9.39986e-07
9.39987e-07
9.39985e-07
9.41296e-07
9.41617e-07
9.42271e-07
9.42245e-07
9.41168e-07
9.39985e-07
9.39986e-07
9.39985e-07
9.39986e-07
9.39985e-07
9.39986e-07
9.39985e-07
9.41321e-07
9.41703e-07
9.42293e-07
9.41497e-07
9.39985e-07
9.39987e-07
9.39986e-07
9.39987e-07
9.39986e-07
9.39987e-07
9.39985e-07
9.39987e-07
9.39985e-07
9.41755e-07
9.42438e-07
9.41434e-07
9.39986e-07
9.39986e-07
9.39986e-07
9.39986e-07
9.39986e-07
9.39986e-07
9.39986e-07
9.39986e-07
9.39986e-07
9.41744e-07
9.42454e-07
9.41482e-07
9.39985e-07
9.39987e-07
9.39986e-07
9.39987e-07
9.39986e-07
9.39987e-07
9.39985e-07
9.39987e-07
9.39985e-07
9.41748e-07
9.42455e-07
9.42252e-07
9.41319e-07
9.39985e-07
9.39986e-07
9.39986e-07
9.39986e-07
9.39986e-07
9.39986e-07
9.39985e-07
9.41535e-07
9.41749e-07
9.4243e-07
9.42278e-07
9.41619e-07
9.41296e-07
9.39985e-07
9.39987e-07
9.39986e-07
9.39987e-07
9.39985e-07
9.41502e-07
9.41669e-07
9.41796e-07
9.42268e-07
9.41617e-07
9.41321e-07
9.39985e-07
9.39986e-07
9.39985e-07
9.41535e-07
9.41669e-07
9.41771e-07
9.42412e-07
9.42271e-07
9.41703e-07
9.41755e-07
9.41745e-07
9.41748e-07
9.41749e-07
9.41796e-07
9.42412e-07
9.42293e-07
9.42439e-07
9.42454e-07
9.42455e-07
9.4243e-07
9.3326e-07
9.32512e-07
9.32449e-07
9.32497e-07
9.33267e-07
9.33293e-07
9.33278e-07
9.32618e-07
9.32183e-07
9.31e-07
9.31001e-07
9.31e-07
9.32334e-07
9.32634e-07
9.33283e-07
9.32618e-07
9.32147e-07
9.31e-07
9.31002e-07
9.31001e-07
9.31002e-07
9.31e-07
9.32311e-07
9.32632e-07
9.33286e-07
9.3326e-07
9.32184e-07
9.31e-07
9.31001e-07
9.31e-07
9.31001e-07
9.31e-07
9.31001e-07
9.31e-07
9.32336e-07
9.32718e-07
9.33308e-07
9.32512e-07
9.31e-07
9.31002e-07
9.31e-07
9.31002e-07
9.31001e-07
9.31002e-07
9.31e-07
9.31002e-07
9.31e-07
9.3277e-07
9.33453e-07
9.32449e-07
9.31001e-07
9.31001e-07
9.31001e-07
9.31001e-07
9.31001e-07
9.31001e-07
9.31001e-07
9.31001e-07
9.31001e-07
9.3276e-07
9.33469e-07
9.32497e-07
9.31e-07
9.31002e-07
9.31e-07
9.31002e-07
9.31001e-07
9.31002e-07
9.31e-07
9.31002e-07
9.31e-07
9.32763e-07
9.3347e-07
9.33267e-07
9.32334e-07
9.31e-07
9.31001e-07
9.31e-07
9.31001e-07
9.31e-07
9.31001e-07
9.31e-07
9.3255e-07
9.32764e-07
9.33445e-07
9.33293e-07
9.32634e-07
9.32311e-07
9.31e-07
9.31002e-07
9.31001e-07
9.31002e-07
9.31e-07
9.32517e-07
9.32684e-07
9.32811e-07
9.33283e-07
9.32632e-07
9.32336e-07
9.31e-07
9.31001e-07
9.31e-07
9.3255e-07
9.32684e-07
9.32786e-07
9.33427e-07
9.33286e-07
9.32718e-07
9.3277e-07
9.3276e-07
9.32763e-07
9.32764e-07
9.32811e-07
9.33427e-07
9.33308e-07
9.33454e-07
9.33469e-07
9.3347e-07
9.33445e-07
9.24275e-07
9.23527e-07
9.23464e-07
9.23512e-07
9.24282e-07
9.24308e-07
9.24293e-07
9.23633e-07
9.23198e-07
9.22015e-07
9.22016e-07
9.22015e-07
9.23349e-07
9.23649e-07
9.24298e-07
9.23633e-07
9.23162e-07
9.22015e-07
9.22017e-07
9.22016e-07
9.22017e-07
9.22015e-07
9.23326e-07
9.23647e-07
9.24301e-07
9.24275e-07
9.23199e-07
9.22015e-07
9.22016e-07
9.22015e-07
9.22016e-07
9.22015e-07
9.22016e-07
9.22015e-07
9.23351e-07
9.23733e-07
9.24323e-07
9.23527e-07
9.22015e-07
9.22017e-07
9.22016e-07
9.22017e-07
9.22016e-07
9.22017e-07
9.22015e-07
9.22017e-07
9.22015e-07
9.23785e-07
9.24469e-07
9.23464e-07
9.22016e-07
9.22016e-07
9.22016e-07
9.22016e-07
9.22016e-07
9.22016e-07
9.22016e-07
9.22016e-07
9.22016e-07
9.23775e-07
9.24484e-07
9.23512e-07
9.22015e-07
9.22017e-07
9.22016e-07
9.22017e-07
9.22016e-07
9.22017e-07
9.22015e-07
9.22017e-07
9.22015e-07
9.23778e-07
9.24485e-07
9.24282e-07
9.23349e-07
9.22015e-07
9.22016e-07
9.22015e-07
9.22016e-07
9.22015e-07
9.22016e-07
9.22015e-07
9.23565e-07
9.23779e-07
9.2446e-07
9.24308e-07
9.23649e-07
9.23326e-07
9.22015e-07
9.22017e-07
9.22016e-07
9.22017e-07
9.22015e-07
9.23532e-07
9.23699e-07
9.23826e-07
9.24298e-07
9.23647e-07
9.23351e-07
9.22015e-07
9.22016e-07
9.22015e-07
9.23565e-07
9.23699e-07
9.23801e-07
9.24442e-07
9.24301e-07
9.23733e-07
9.23785e-07
9.23775e-07
9.23778e-07
9.23779e-07
9.23826e-07
9.24442e-07
9.24323e-07
9.24469e-07
9.24484e-07
9.24485e-07
9.2446e-07
9.1529e-07
9.14542e-07
9.14479e-07
9.14527e-07
9.15297e-07
9.15323e-07
9.15308e-07
9.14648e-07
9.14214e-07
9.1303e-07
9.13031e-07
9.1303e-07
9.14364e-07
9.14665e-07
9.15313e-07
9.14648e-07
9.14177e-07
9.1303e-07
9.13032e-07
9.13031e-07
9.13032e-07
9.13031e-07
9.14341e-07
9.14662e-07
9.15316e-07
9.1529e-07
9.14214e-07
9.1303e-07
9.13031e-07
9.13031e-07
9.13031e-07
9.13031e-07
9.13031e-07
9.13031e-07
9.14366e-07
9.14748e-07
9.15338e-07
9.14542e-07
9.1303e-07
9.13032e-07
9.13031e-07
9.13032e-07
9.13031e-07
9.13032e-07
9.13031e-07
9.13032e-07
9.1303e-07
9.148e-07
9.15484e-07
9.14479e-07
9.13031e-07
9.13031e-07
9.13031e-07
9.13031e-07
9.13031e-07
9.13031e-07
9.13031e-07
9.13031e-07
9.13031e-07
9.1479e-07
9.15499e-07
9.14527e-07
9.1303e-07
9.13032e-07
9.13031e-07
9.13032e-07
9.13031e-07
9.13032e-07
9.13031e-07
9.13032e-07
9.1303e-07
9.14793e-07
9.155e-07
9.15297e-07
9.14364e-07
9.1303e-07
9.13031e-07
9.13031e-07
9.13031e-07
9.13031e-07
9.13031e-07
9.1303e-07
9.1458e-07
9.14794e-07
9.15475e-07
9.15323e-07
9.14664e-07
9.14341e-07
9.1303e-07
9.13032e-07
9.13031e-07
9.13032e-07
9.1303e-07
9.14547e-07
9.14714e-07
9.14841e-07
9.15313e-07
9.14662e-07
9.14366e-07
9.1303e-07
9.13031e-07
9.1303e-07
9.1458e-07
9.14714e-07
9.14816e-07
9.15457e-07
9.15316e-07
9.14748e-07
9.148e-07
9.1479e-07
9.14793e-07
9.14794e-07
9.14841e-07
9.15457e-07
9.15338e-07
9.15484e-07
9.15499e-07
9.155e-07
9.15475e-07
9.06305e-07
9.05557e-07
9.05494e-07
9.05542e-07
9.06312e-07
9.06338e-07
9.06323e-07
9.05663e-07
9.05229e-07
9.04045e-07
9.04046e-07
9.04045e-07
9.05379e-07
9.0568e-07
9.06328e-07
9.05663e-07
9.05192e-07
9.04046e-07
9.04047e-07
9.04046e-07
9.04047e-07
9.04046e-07
9.05356e-07
9.05677e-07
9.06331e-07
9.06305e-07
9.05229e-07
9.04046e-07
9.04046e-07
9.04046e-07
9.04046e-07
9.04046e-07
9.04046e-07
9.04046e-07
9.05381e-07
9.05763e-07
9.06353e-07
9.05557e-07
9.04045e-07
9.04047e-07
9.04046e-07
9.04047e-07
9.04046e-07
9.04047e-07
9.04046e-07
9.04047e-07
9.04045e-07
9.05815e-07
9.06499e-07
9.05494e-07
9.04046e-07
9.04046e-07
9.04046e-07
9.04046e-07
9.04046e-07
9.04046e-07
9.04046e-07
9.04046e-07
9.04046e-07
9.05805e-07
9.06514e-07
9.05542e-07
9.04045e-07
9.04047e-07
9.04046e-07
9.04047e-07
9.04046e-07
9.04047e-07
9.04046e-07
9.04047e-07
9.04045e-07
9.05808e-07
9.06515e-07
9.06312e-07
9.05379e-07
9.04046e-07
9.04046e-07
9.04046e-07
9.04046e-07
9.04046e-07
9.04046e-07
9.04046e-07
9.05595e-07
9.05809e-07
9.0649e-07
9.06338e-07
9.05679e-07
9.05356e-07
9.04046e-07
9.04047e-07
9.04046e-07
9.04047e-07
9.04046e-07
9.05562e-07
9.05729e-07
9.05856e-07
9.06328e-07
9.05677e-07
9.05381e-07
9.04045e-07
9.04046e-07
9.04045e-07
9.05595e-07
9.05729e-07
9.05831e-07
9.06473e-07
9.06331e-07
9.05763e-07
9.05815e-07
9.05805e-07
9.05808e-07
9.05809e-07
9.05856e-07
9.06472e-07
9.06353e-07
9.06499e-07
9.06514e-07
9.06515e-07
9.0649e-07
8.9732e-07
8.96572e-07
8.96509e-07
8.96557e-07
8.97327e-07
8.97353e-07
8.97338e-07
8.96678e-07
8.96244e-07
8.9506e-07
8.95061e-07
8.9506e-07
8.96394e-07
8.96695e-07
8.97343e-07
8.96678e-07
8.96207e-07
8.95061e-07
8.95062e-07
8.95061e-07
8.95062e-07
8.95061e-07
8.96371e-07
8.96692e-07
8.97346e-07
8.9732e-07
8.96244e-07
8.95061e-07
8.95061e-07
8.95061e-07
8.95061e-07
8.95061e-07
8.95061e-07
8.95061e-07
8.96396e-07
8.96778e-07
8.97368e-07
8.96572e-07
8.9506e-07
8.95062e-07
8.95061e-07
8.95062e-07
8.95061e-07
8.95062e-07
8.95061e-07
8.95062e-07
8.9506e-07
8.9683e-07
8.97514e-07
8.96509e-07
8.95061e-07
8.95061e-07
8.95061e-07
8.95061e-07
8.95061e-07
8.95061e-07
8.95061e-07
8.95061e-07
8.95061e-07
8.9682e-07
8.97529e-07
8.96557e-07
8.9506e-07
8.95062e-07
8.95061e-07
8.95062e-07
8.95061e-07
8.95062e-07
8.95061e-07
8.95062e-07
8.9506e-07
8.96823e-07
8.9753e-07
8.97327e-07
8.96394e-07
8.95061e-07
8.95061e-07
8.95061e-07
8.95061e-07
8.95061e-07
8.95061e-07
8.95061e-07
8.9661e-07
8.96825e-07
8.97506e-07
8.97353e-07
8.96695e-07
8.96371e-07
8.95061e-07
8.95062e-07
8.95061e-07
8.95062e-07
8.95061e-07
8.96577e-07
8.96744e-07
8.96871e-07
8.97343e-07
8.96692e-07
8.96396e-07
8.9506e-07
8.95061e-07
8.9506e-07
8.9661e-07
8.96744e-07
8.96846e-07
8.97488e-07
8.97346e-07
8.96778e-07
8.9683e-07
8.9682e-07
8.96823e-07
8.96825e-07
8.96871e-07
8.97487e-07
8.97368e-07
8.97514e-07
8.97529e-07
8.9753e-07
8.97506e-07
8.88335e-07
8.87587e-07
8.87524e-07
8.87572e-07
8.88342e-07
8.88368e-07
8.88353e-07
8.87693e-07
8.87259e-07
8.86075e-07
8.86076e-07
8.86075e-07
8.87409e-07
8.8771e-07
8.88358e-07
8.87693e-07
8.87222e-07
8.86076e-07
8.86077e-07
8.86076e-07
8.86077e-07
8.86076e-07
8.87386e-07
8.87707e-07
8.88361e-07
8.88335e-07
8.87259e-07
8.86076e-07
8.86076e-07
8.86076e-07
8.86076e-07
8.86076e-07
8.86076e-07
8.86076e-07
8.87411e-07
8.87793e-07
8.88383e-07
8.87587e-07
8.86075e-07
8.86077e-07
8.86076e-07
8.86077e-07
8.86076e-07
8.86077e-07
8.86076e-07
8.86077e-07
8.86075e-07
8.87845e-07
8.88529e-07
8.87524e-07
8.86076e-07
8.86076e-07
8.86076e-07
8.86076e-07
8.86076e-07
8.86076e-07
8.86076e-07
8.86076e-07
8.86076e-07
8.87835e-07
8.88544e-07
8.87572e-07
8.86075e-07
8.86077e-07
8.86076e-07
8.86077e-07
8.86076e-07
8.86077e-07
8.86076e-07
8.86077e-07
8.86075e-07
8.87838e-07
8.88545e-07
8.88342e-07