/*--------------------------------*- C++ -*----------------------------------*\
| =========                 |                                                 |
| \\      /  F ield         | OpenFOAM: The Open Source CFD Toolbox           |
|  \\    /   O peration     | Version:  v2012                                 |
|   \\  /    A nd           | Website:  www.openfoam.com                      |
|    \\/     M anipulation  |                                                 |
\*---------------------------------------------------------------------------*/
FoamFile
{
    version     2.0;
    format      ascii;
    class       volScalarField;
    location    "97";
    object      p;
}
// * * * * * * * * * * * * * * * * * * * * * * * * * * * * * * * * * * * * * //

dimensions      [0 2 -2 0 0 0 0];


internalField   nonuniform List<scalar> 
292667
(
9.44114e-07
9.35481e-07
9.34891e-07
9.3494e-07
9.35718e-07
9.44912e-07
9.35681e-07
9.33684e-07
9.32496e-07
9.32005e-07
9.32067e-07
9.32702e-07
9.34061e-07
9.36214e-07
9.35681e-07
9.33109e-07
9.31474e-07
9.30565e-07
9.30181e-07
9.30231e-07
9.30726e-07
9.31778e-07
9.33608e-07
9.3633e-07
9.44114e-07
9.33683e-07
9.31474e-07
9.30143e-07
9.29396e-07
9.29076e-07
9.29119e-07
9.29533e-07
9.30399e-07
9.31905e-07
9.34364e-07
9.43462e-07
9.35481e-07
9.32496e-07
9.30565e-07
9.29396e-07
9.28733e-07
9.28446e-07
9.28485e-07
9.28857e-07
9.29628e-07
9.30953e-07
9.3313e-07
9.38622e-07
9.34891e-07
9.32005e-07
9.30181e-07
9.29076e-07
9.28446e-07
9.28172e-07
9.2821e-07
9.28565e-07
9.29299e-07
9.30554e-07
9.32619e-07
9.37179e-07
9.3494e-07
9.32067e-07
9.30231e-07
9.29119e-07
9.28485e-07
9.2821e-07
9.28248e-07
9.28606e-07
9.29345e-07
9.3061e-07
9.32693e-07
9.37461e-07
9.35718e-07
9.32702e-07
9.30726e-07
9.29533e-07
9.28857e-07
9.28565e-07
9.28606e-07
9.28986e-07
9.29775e-07
9.31135e-07
9.33371e-07
9.38894e-07
9.44912e-07
9.34061e-07
9.31778e-07
9.30399e-07
9.29628e-07
9.29299e-07
9.29345e-07
9.29775e-07
9.30678e-07
9.32251e-07
9.34795e-07
9.4328e-07
9.36214e-07
9.33608e-07
9.31904e-07
9.30953e-07
9.30554e-07
9.3061e-07
9.31135e-07
9.32251e-07
9.3418e-07
9.39545e-07
9.3633e-07
9.34364e-07
9.3313e-07
9.32619e-07
9.32693e-07
9.3337e-07
9.34794e-07
9.39545e-07
9.43462e-07
9.38622e-07
9.37179e-07
9.37461e-07
9.38894e-07
9.43279e-07
9.22184e-07
9.21696e-07
9.21656e-07
9.21704e-07
9.22253e-07
9.22097e-07
9.22192e-07
9.21812e-07
9.21525e-07
9.20582e-07
9.20566e-07
9.20583e-07
9.21687e-07
9.21884e-07
9.22267e-07
9.21812e-07
9.21497e-07
9.20607e-07
9.20572e-07
9.20601e-07
9.20573e-07
9.20608e-07
9.21672e-07
9.21877e-07
9.2226e-07
9.22184e-07
9.21525e-07
9.20607e-07
9.20551e-07
9.20566e-07
9.20543e-07
9.20567e-07
9.20551e-07
9.20608e-07
9.21679e-07
9.2192e-07
9.2226e-07
9.21696e-07
9.20583e-07
9.20573e-07
9.20567e-07
9.20525e-07
9.20529e-07
9.20525e-07
9.20567e-07
9.20573e-07
9.20583e-07
9.22091e-07
9.22454e-07
9.21656e-07
9.20566e-07
9.20601e-07
9.20543e-07
9.20529e-07
9.20515e-07
9.20529e-07
9.20543e-07
9.20602e-07
9.20566e-07
9.22113e-07
9.2241e-07
9.21704e-07
9.20583e-07
9.20573e-07
9.20567e-07
9.20525e-07
9.20529e-07
9.20525e-07
9.20567e-07
9.20573e-07
9.20583e-07
9.22099e-07
9.22423e-07
9.22253e-07
9.21687e-07
9.20608e-07
9.20551e-07
9.20567e-07
9.20543e-07
9.20567e-07
9.20551e-07
9.20608e-07
9.21893e-07
9.21996e-07
9.22397e-07
9.22097e-07
9.21884e-07
9.21672e-07
9.20608e-07
9.20573e-07
9.20602e-07
9.20573e-07
9.20608e-07
9.2186e-07
9.21959e-07
9.21946e-07
9.22267e-07
9.21877e-07
9.21679e-07
9.20583e-07
9.20566e-07
9.20583e-07
9.21893e-07
9.21959e-07
9.21971e-07
9.22352e-07
9.2226e-07
9.2192e-07
9.22091e-07
9.22113e-07
9.22099e-07
9.21996e-07
9.21947e-07
9.22353e-07
9.2226e-07
9.22454e-07
9.2241e-07
9.22423e-07
9.22397e-07
9.14325e-07
9.13748e-07
9.13702e-07
9.13744e-07
9.14363e-07
9.14356e-07
9.14324e-07
9.13826e-07
9.13489e-07
9.12598e-07
9.12597e-07
9.12598e-07
9.13646e-07
9.13871e-07
9.14359e-07
9.13826e-07
9.13461e-07
9.1263e-07
9.1264e-07
9.12665e-07
9.1264e-07
9.1263e-07
9.1364e-07
9.1387e-07
9.1436e-07
9.14325e-07
9.13489e-07
9.1263e-07
9.1265e-07
9.12686e-07
9.12681e-07
9.12686e-07
9.1265e-07
9.1263e-07
9.13655e-07
9.13941e-07
9.14362e-07
9.13748e-07
9.12598e-07
9.1264e-07
9.12687e-07
9.12691e-07
9.1271e-07
9.12691e-07
9.12687e-07
9.1264e-07
9.12598e-07
9.14035e-07
9.14529e-07
9.13702e-07
9.12597e-07
9.12665e-07
9.12681e-07
9.1271e-07
9.12709e-07
9.1271e-07
9.12681e-07
9.12665e-07
9.12597e-07
9.14045e-07
9.1456e-07
9.13744e-07
9.12598e-07
9.1264e-07
9.12686e-07
9.12691e-07
9.1271e-07
9.12691e-07
9.12686e-07
9.1264e-07
9.12598e-07
9.1404e-07
9.14559e-07
9.14363e-07
9.13646e-07
9.1263e-07
9.1265e-07
9.12687e-07
9.12681e-07
9.12687e-07
9.1265e-07
9.1263e-07
9.13877e-07
9.14004e-07
9.14509e-07
9.14356e-07
9.13871e-07
9.1364e-07
9.1263e-07
9.1264e-07
9.12665e-07
9.1264e-07
9.1263e-07
9.13855e-07
9.13944e-07
9.14013e-07
9.14359e-07
9.1387e-07
9.13655e-07
9.12598e-07
9.12597e-07
9.12598e-07
9.13877e-07
9.13944e-07
9.13995e-07
9.14482e-07
9.1436e-07
9.13941e-07
9.14035e-07
9.14045e-07
9.1404e-07
9.14004e-07
9.14013e-07
9.14483e-07
9.14362e-07
9.14529e-07
9.1456e-07
9.14559e-07
9.14509e-07
9.06501e-07
9.05914e-07
9.05862e-07
9.05906e-07
9.06536e-07
9.06533e-07
9.06501e-07
9.05989e-07
9.05634e-07
9.04727e-07
9.04729e-07
9.04727e-07
9.05786e-07
9.06025e-07
9.06534e-07
9.05989e-07
9.056e-07
9.04745e-07
9.0476e-07
9.04772e-07
9.0476e-07
9.04745e-07
9.05771e-07
9.06023e-07
9.06537e-07
9.06501e-07
9.05635e-07
9.04745e-07
9.04768e-07
9.04793e-07
9.04794e-07
9.04793e-07
9.04768e-07
9.04745e-07
9.05792e-07
9.06105e-07
9.06538e-07
9.05914e-07
9.04727e-07
9.0476e-07
9.04794e-07
9.04807e-07
9.0482e-07
9.04807e-07
9.04794e-07
9.0476e-07
9.04727e-07
9.06191e-07
9.06704e-07
9.05862e-07
9.04729e-07
9.04772e-07
9.04794e-07
9.0482e-07
9.04821e-07
9.0482e-07
9.04794e-07
9.04772e-07
9.04729e-07
9.06194e-07
9.06733e-07
9.05906e-07
9.04727e-07
9.0476e-07
9.04793e-07
9.04807e-07
9.0482e-07
9.04807e-07
9.04793e-07
9.0476e-07
9.04727e-07
9.06191e-07
9.06732e-07
9.06536e-07
9.05786e-07
9.04745e-07
9.04768e-07
9.04794e-07
9.04794e-07
9.04794e-07
9.04768e-07
9.04745e-07
9.06013e-07
9.06165e-07
9.06683e-07
9.06533e-07
9.06025e-07
9.05771e-07
9.04745e-07
9.0476e-07
9.04772e-07
9.0476e-07
9.04745e-07
9.05987e-07
9.06092e-07
9.06185e-07
9.06534e-07
9.06023e-07
9.05792e-07
9.04727e-07
9.04729e-07
9.04727e-07
9.06013e-07
9.06092e-07
9.06162e-07
9.06661e-07
9.06537e-07
9.06105e-07
9.06191e-07
9.06194e-07
9.06191e-07
9.06165e-07
9.06185e-07
9.06661e-07
9.06538e-07
9.06704e-07
9.06733e-07
9.06731e-07
9.06683e-07
8.98676e-07
8.98086e-07
8.98033e-07
8.98078e-07
8.98712e-07
8.98709e-07
8.98678e-07
8.98161e-07
8.978e-07
8.96884e-07
8.96886e-07
8.96884e-07
8.97951e-07
8.98195e-07
8.98711e-07
8.98161e-07
8.97763e-07
8.96893e-07
8.96904e-07
8.96909e-07
8.96904e-07
8.96893e-07
8.97931e-07
8.98192e-07
8.98714e-07
8.98676e-07
8.978e-07
8.96893e-07
8.96909e-07
8.96923e-07
8.96925e-07
8.96923e-07
8.96908e-07
8.96893e-07
8.97955e-07
8.98278e-07
8.98714e-07
8.98086e-07
8.96884e-07
8.96904e-07
8.96924e-07
8.96936e-07
8.96943e-07
8.96936e-07
8.96924e-07
8.96904e-07
8.96884e-07
8.98362e-07
8.9888e-07
8.98033e-07
8.96886e-07
8.96909e-07
8.96925e-07
8.96943e-07
8.96945e-07
8.96943e-07
8.96925e-07
8.96909e-07
8.96886e-07
8.98363e-07
8.98908e-07
8.98078e-07
8.96884e-07
8.96904e-07
8.96924e-07
8.96936e-07
8.96943e-07
8.96936e-07
8.96923e-07
8.96904e-07
8.96884e-07
8.9836e-07
8.98907e-07
8.98712e-07
8.97951e-07
8.96893e-07
8.96909e-07
8.96924e-07
8.96925e-07
8.96924e-07
8.96909e-07
8.96893e-07
8.98176e-07
8.98337e-07
8.98859e-07
8.98709e-07
8.98195e-07
8.97931e-07
8.96893e-07
8.96904e-07
8.96909e-07
8.96904e-07
8.96893e-07
8.98147e-07
8.9826e-07
8.98361e-07
8.98711e-07
8.98192e-07
8.97955e-07
8.96884e-07
8.96886e-07
8.96884e-07
8.98176e-07
8.9826e-07
8.98337e-07
8.98838e-07
8.98714e-07
8.98278e-07
8.98361e-07
8.98363e-07
8.9836e-07
8.98337e-07
8.98361e-07
8.98838e-07
8.98714e-07
8.9888e-07
8.98908e-07
8.98907e-07
8.98859e-07
8.9085e-07
8.90259e-07
8.90205e-07
8.9025e-07
8.90886e-07
8.90884e-07
8.90852e-07
8.90334e-07
8.8997e-07
8.8905e-07
8.89051e-07
8.8905e-07
8.90121e-07
8.90367e-07
8.90886e-07
8.90334e-07
8.89931e-07
8.89055e-07
8.89062e-07
8.89064e-07
8.89062e-07
8.89055e-07
8.90099e-07
8.90364e-07
8.90889e-07
8.90851e-07
8.8997e-07
8.89055e-07
8.89064e-07
8.89072e-07
8.89074e-07
8.89072e-07
8.89064e-07
8.89055e-07
8.90124e-07
8.90452e-07
8.90889e-07
8.90259e-07
8.8905e-07
8.89062e-07
8.89072e-07
8.89081e-07
8.89084e-07
8.89081e-07
8.89072e-07
8.89062e-07
8.8905e-07
8.90534e-07
8.91054e-07
8.90205e-07
8.89051e-07
8.89064e-07
8.89074e-07
8.89084e-07
8.89086e-07
8.89084e-07
8.89074e-07
8.89064e-07
8.89051e-07
8.90534e-07
8.91082e-07
8.9025e-07
8.8905e-07
8.89062e-07
8.89072e-07
8.89081e-07
8.89084e-07
8.89081e-07
8.89072e-07
8.89062e-07
8.8905e-07
8.90531e-07
8.91081e-07
8.90886e-07
8.90121e-07
8.89055e-07
8.89064e-07
8.89072e-07
8.89074e-07
8.89072e-07
8.89064e-07
8.89055e-07
8.90345e-07
8.9051e-07
8.91033e-07
8.90884e-07
8.90367e-07
8.90099e-07
8.89055e-07
8.89062e-07
8.89064e-07
8.89062e-07
8.89055e-07
8.90314e-07
8.90431e-07
8.90535e-07
8.90886e-07
8.90364e-07
8.90124e-07
8.8905e-07
8.89051e-07
8.8905e-07
8.90346e-07
8.90431e-07
8.9051e-07
8.91013e-07
8.90889e-07
8.90452e-07
8.90534e-07
8.90534e-07
8.90531e-07
8.90511e-07
8.90535e-07
8.91013e-07
8.90889e-07
8.91054e-07
8.91082e-07
8.91081e-07
8.91033e-07
8.83023e-07
8.82431e-07
8.82377e-07
8.82423e-07
8.83059e-07
8.83057e-07
8.83026e-07
8.82507e-07
8.82141e-07
8.81219e-07
8.81221e-07
8.81219e-07
8.82293e-07
8.82539e-07
8.8306e-07
8.82507e-07
8.82102e-07
8.81222e-07
8.81226e-07
8.81227e-07
8.81226e-07
8.81222e-07
8.8227e-07
8.82536e-07
8.83062e-07
8.83024e-07
8.82142e-07
8.81222e-07
8.81227e-07
8.81232e-07
8.81233e-07
8.81232e-07
8.81227e-07
8.81222e-07
8.82296e-07
8.82625e-07
8.83062e-07
8.82431e-07
8.81219e-07
8.81227e-07
8.81232e-07
8.81237e-07
8.81239e-07
8.81237e-07
8.81232e-07
8.81227e-07
8.81219e-07
8.82706e-07
8.83227e-07
8.82377e-07
8.81221e-07
8.81227e-07
8.81233e-07
8.81239e-07
8.8124e-07
8.81239e-07
8.81233e-07
8.81227e-07
8.81221e-07
8.82706e-07
8.83255e-07
8.82423e-07
8.81219e-07
8.81227e-07
8.81232e-07
8.81237e-07
8.81239e-07
8.81237e-07
8.81232e-07
8.81227e-07
8.81219e-07
8.82703e-07
8.83254e-07
8.83059e-07
8.82293e-07
8.81222e-07
8.81227e-07
8.81232e-07
8.81233e-07
8.81232e-07
8.81227e-07
8.81222e-07
8.82517e-07
8.82683e-07
8.83206e-07
8.83057e-07
8.82539e-07
8.8227e-07
8.81222e-07
8.81227e-07
8.81227e-07
8.81227e-07
8.81222e-07
8.82484e-07
8.82603e-07
8.82708e-07
8.83059e-07
8.82536e-07
8.82296e-07
8.81219e-07
8.81221e-07
8.81219e-07
8.82517e-07
8.82603e-07
8.82684e-07
8.83186e-07
8.83062e-07
8.82625e-07
8.82706e-07
8.82706e-07
8.82703e-07
8.82683e-07
8.82708e-07
8.83187e-07
8.83062e-07
8.83227e-07
8.83255e-07
8.83254e-07
8.83206e-07
8.75197e-07
8.74604e-07
8.7455e-07
8.74595e-07
8.75231e-07
8.7523e-07
8.75199e-07
8.74679e-07
8.74313e-07
8.7339e-07
8.73391e-07
8.7339e-07
8.74465e-07
8.74712e-07
8.75232e-07
8.74679e-07
8.74274e-07
8.73392e-07
8.73395e-07
8.73395e-07
8.73395e-07
8.73392e-07
8.74442e-07
8.74709e-07
8.75235e-07
8.75196e-07
8.74313e-07
8.73392e-07
8.73395e-07
8.73397e-07
8.73398e-07
8.73397e-07
8.73395e-07
8.73392e-07
8.74468e-07
8.74797e-07
8.75235e-07
8.74603e-07
8.7339e-07
8.73395e-07
8.73397e-07
8.73401e-07
8.73401e-07
8.73401e-07
8.73397e-07
8.73395e-07
8.7339e-07
8.74879e-07
8.754e-07
8.74549e-07
8.73391e-07
8.73395e-07
8.73398e-07
8.73401e-07
8.73402e-07
8.73401e-07
8.73398e-07
8.73395e-07
8.73391e-07
8.74878e-07
8.75428e-07
8.74595e-07
8.7339e-07
8.73395e-07
8.73397e-07
8.73401e-07
8.73401e-07
8.73401e-07
8.73397e-07
8.73395e-07
8.7339e-07
8.74876e-07
8.75427e-07
8.75231e-07
8.74465e-07
8.73392e-07
8.73395e-07
8.73397e-07
8.73398e-07
8.73397e-07
8.73395e-07
8.73392e-07
8.74689e-07
8.74856e-07
8.75379e-07
8.7523e-07
8.74712e-07
8.74442e-07
8.73392e-07
8.73395e-07
8.73395e-07
8.73395e-07
8.73392e-07
8.74656e-07
8.74776e-07
8.74881e-07
8.75232e-07
8.74709e-07
8.74468e-07
8.7339e-07
8.73392e-07
8.7339e-07
8.74689e-07
8.74776e-07
8.74857e-07
8.7536e-07
8.75235e-07
8.74797e-07
8.74879e-07
8.74878e-07
8.74876e-07
8.74856e-07
8.74881e-07
8.75359e-07
8.75235e-07
8.754e-07
8.75428e-07
8.75427e-07
8.75379e-07
8.67369e-07
8.66776e-07
8.66722e-07
8.66767e-07
8.67404e-07
8.67403e-07
8.67371e-07
8.66852e-07
8.66486e-07
8.65562e-07
8.65563e-07
8.65562e-07
8.66637e-07
8.66884e-07
8.67405e-07
8.66852e-07
8.66446e-07
8.65563e-07
8.65565e-07
8.65565e-07
8.65565e-07
8.65563e-07
8.66614e-07
8.66881e-07
8.67408e-07
8.67369e-07
8.66486e-07
8.65563e-07
8.65565e-07
8.65566e-07
8.65567e-07
8.65566e-07
8.65565e-07
8.65563e-07
8.6664e-07
8.6697e-07
8.67407e-07
8.66776e-07
8.65562e-07
8.65565e-07
8.65566e-07
8.65568e-07
8.65568e-07
8.65568e-07
8.65566e-07
8.65565e-07
8.65562e-07
8.67051e-07
8.67573e-07
8.66722e-07
8.65563e-07
8.65565e-07
8.65567e-07
8.65568e-07
8.65569e-07
8.65568e-07
8.65567e-07
8.65565e-07
8.65563e-07
8.6705e-07
8.676e-07
8.66767e-07
8.65562e-07
8.65565e-07
8.65566e-07
8.65568e-07
8.65568e-07
8.65568e-07
8.65566e-07
8.65565e-07
8.65562e-07
8.67048e-07
8.67599e-07
8.67404e-07
8.66637e-07
8.65563e-07
8.65565e-07
8.65566e-07
8.65567e-07
8.65566e-07
8.65565e-07
8.65563e-07
8.66861e-07
8.67029e-07
8.67552e-07
8.67403e-07
8.66884e-07
8.66614e-07
8.65563e-07
8.65565e-07
8.65565e-07
8.65565e-07
8.65563e-07
8.66828e-07
8.66948e-07
8.67054e-07
8.67405e-07
8.66881e-07
8.6664e-07
8.65562e-07
8.65563e-07
8.65562e-07
8.66861e-07
8.66948e-07
8.67029e-07
8.67532e-07
8.67408e-07
8.6697e-07
8.67051e-07
8.6705e-07
8.67048e-07
8.67028e-07
8.67054e-07
8.67532e-07
8.67407e-07
8.67573e-07
8.676e-07
8.67599e-07
8.67552e-07
8.59541e-07
8.58948e-07
8.58894e-07
8.5894e-07
8.59576e-07
8.59575e-07
8.59544e-07
8.59024e-07
8.58657e-07
8.57734e-07
8.57735e-07
8.57734e-07
8.58809e-07
8.59056e-07
8.59578e-07
8.59024e-07
8.58618e-07
8.57734e-07
8.57736e-07
8.57736e-07
8.57736e-07
8.57734e-07
8.58786e-07
8.59053e-07
8.5958e-07
8.59541e-07
8.58658e-07
8.57734e-07
8.57736e-07
8.57736e-07
8.57737e-07
8.57736e-07
8.57736e-07
8.57734e-07
8.58812e-07
8.59142e-07
8.5958e-07
8.58948e-07
8.57734e-07
8.57736e-07
8.57736e-07
8.57738e-07
8.57737e-07
8.57738e-07
8.57736e-07
8.57737e-07
8.57734e-07
8.59223e-07
8.59745e-07
8.58894e-07
8.57735e-07
8.57736e-07
8.57737e-07
8.57737e-07
8.57738e-07
8.57737e-07
8.57737e-07
8.57736e-07
8.57735e-07
8.59222e-07
8.59772e-07
8.5894e-07
8.57734e-07
8.57736e-07
8.57736e-07
8.57738e-07
8.57737e-07
8.57738e-07
8.57736e-07
8.57736e-07
8.57734e-07
8.5922e-07
8.59771e-07
8.59576e-07
8.58809e-07
8.57734e-07
8.57736e-07
8.57736e-07
8.57737e-07
8.57736e-07
8.57736e-07
8.57734e-07
8.59033e-07
8.59201e-07
8.59724e-07
8.59575e-07
8.59056e-07
8.58786e-07
8.57734e-07
8.57736e-07
8.57736e-07
8.57736e-07
8.57734e-07
8.59e-07
8.5912e-07
8.59226e-07
8.59578e-07
8.59053e-07
8.58812e-07
8.57734e-07
8.57735e-07
8.57734e-07
8.59033e-07
8.59121e-07
8.59201e-07
8.59704e-07
8.5958e-07
8.59142e-07
8.59223e-07
8.59223e-07
8.5922e-07
8.59201e-07
8.59226e-07
8.59705e-07
8.5958e-07
8.59745e-07
8.59773e-07
8.59772e-07
8.59724e-07
8.51714e-07
8.51121e-07
8.51066e-07
8.51112e-07
8.51749e-07
8.51747e-07
8.51716e-07
8.51196e-07
8.5083e-07
8.49906e-07
8.49907e-07
8.49906e-07
8.50981e-07
8.51229e-07
8.5175e-07
8.51196e-07
8.5079e-07
8.49906e-07
8.49909e-07
8.49907e-07
8.49909e-07
8.49906e-07
8.50958e-07
8.51226e-07
8.51753e-07
8.51714e-07
8.5083e-07
8.49906e-07
8.49908e-07
8.49907e-07
8.49908e-07
8.49907e-07
8.49908e-07
8.49906e-07
8.50984e-07
8.51314e-07
8.51752e-07
8.5112e-07
8.49906e-07
8.49908e-07
8.49907e-07
8.49909e-07
8.49908e-07
8.49909e-07
8.49907e-07
8.49909e-07
8.49906e-07
8.51396e-07
8.51918e-07
8.51066e-07
8.49907e-07
8.49907e-07
8.49908e-07
8.49908e-07
8.49909e-07
8.49908e-07
8.49908e-07
8.49907e-07
8.49907e-07
8.51395e-07
8.51945e-07
8.51112e-07
8.49906e-07
8.49909e-07
8.49907e-07
8.49909e-07
8.49908e-07
8.49909e-07
8.49907e-07
8.49909e-07
8.49906e-07
8.51392e-07
8.51944e-07
8.51749e-07
8.50981e-07
8.49906e-07
8.49908e-07
8.49907e-07
8.49908e-07
8.49907e-07
8.49908e-07
8.49906e-07
8.51205e-07
8.51373e-07
8.51897e-07
8.51747e-07
8.51229e-07
8.50958e-07
8.49906e-07
8.49909e-07
8.49907e-07
8.49909e-07
8.49906e-07
8.51172e-07
8.51293e-07
8.51398e-07
8.5175e-07
8.51226e-07
8.50984e-07
8.49906e-07
8.49907e-07
8.49906e-07
8.51205e-07
8.51293e-07
8.51374e-07
8.51877e-07
8.51753e-07
8.51314e-07
8.51396e-07
8.51395e-07
8.51392e-07
8.51373e-07
8.51398e-07
8.51877e-07
8.51752e-07
8.51918e-07
8.51945e-07
8.51944e-07
8.51896e-07
8.43886e-07
8.43293e-07
8.43239e-07
8.43284e-07
8.43921e-07
8.4392e-07
8.43889e-07
8.43369e-07
8.43002e-07
8.42078e-07
8.42079e-07
8.42078e-07
8.43154e-07
8.43401e-07
8.43922e-07
8.43369e-07
8.42962e-07
8.42078e-07
8.42081e-07
8.42079e-07
8.42081e-07
8.42078e-07
8.43131e-07
8.43398e-07
8.43925e-07
8.43886e-07
8.43002e-07
8.42078e-07
8.4208e-07
8.42079e-07
8.4208e-07
8.42079e-07
8.4208e-07
8.42078e-07
8.43157e-07
8.43487e-07
8.43925e-07
8.43293e-07
8.42078e-07
8.42081e-07
8.42079e-07
8.42081e-07
8.42079e-07
8.42081e-07
8.42079e-07
8.42081e-07
8.42078e-07
8.43568e-07
8.4409e-07
8.43239e-07
8.42079e-07
8.42079e-07
8.4208e-07
8.42079e-07
8.4208e-07
8.42079e-07
8.4208e-07
8.42079e-07
8.42079e-07
8.43567e-07
8.44117e-07
8.43284e-07
8.42078e-07
8.42081e-07
8.42079e-07
8.42081e-07
8.42079e-07
8.42081e-07
8.42079e-07
8.42081e-07
8.42078e-07
8.43565e-07
8.44116e-07
8.43921e-07
8.43154e-07
8.42078e-07
8.4208e-07
8.42079e-07
8.4208e-07
8.42079e-07
8.4208e-07
8.42078e-07
8.43378e-07
8.43545e-07
8.44069e-07
8.4392e-07
8.43401e-07
8.43131e-07
8.42078e-07
8.42081e-07
8.42079e-07
8.42081e-07
8.42078e-07
8.43345e-07
8.43465e-07
8.43571e-07
8.43922e-07
8.43398e-07
8.43156e-07
8.42078e-07
8.42079e-07
8.42078e-07
8.43378e-07
8.43465e-07
8.43546e-07
8.44049e-07
8.43925e-07
8.43487e-07
8.43568e-07
8.43567e-07
8.43565e-07
8.43545e-07
8.4357e-07
8.44049e-07
8.43924e-07
8.4409e-07
8.44117e-07
8.44116e-07
8.44069e-07
8.36058e-07
8.35465e-07
8.35411e-07
8.35457e-07
8.36093e-07
8.36092e-07
8.36061e-07
8.35541e-07
8.35174e-07
8.3425e-07
8.34251e-07
8.3425e-07
8.35326e-07
8.35574e-07
8.36095e-07
8.35541e-07
8.35135e-07
8.34251e-07
8.34253e-07
8.34251e-07
8.34253e-07
8.34251e-07
8.35303e-07
8.3557e-07
8.36097e-07
8.36058e-07
8.35175e-07
8.34251e-07
8.34252e-07
8.34251e-07
8.34252e-07
8.34251e-07
8.34252e-07
8.34251e-07
8.35329e-07
8.35659e-07
8.36097e-07
8.35465e-07
8.3425e-07
8.34253e-07
8.34251e-07
8.34253e-07
8.34251e-07
8.34253e-07
8.34251e-07
8.34253e-07
8.3425e-07
8.3574e-07
8.36262e-07
8.35411e-07
8.34251e-07
8.34251e-07
8.34252e-07
8.34251e-07
8.34252e-07
8.34251e-07
8.34252e-07
8.34251e-07
8.34251e-07
8.35739e-07
8.3629e-07
8.35457e-07
8.3425e-07
8.34253e-07
8.34251e-07
8.34253e-07
8.34251e-07
8.34253e-07
8.34251e-07
8.34253e-07
8.3425e-07
8.35737e-07
8.36288e-07
8.36093e-07
8.35326e-07
8.34251e-07
8.34252e-07
8.34251e-07
8.34252e-07
8.34251e-07
8.34252e-07
8.34251e-07
8.3555e-07
8.35718e-07
8.36241e-07
8.36092e-07
8.35573e-07
8.35303e-07
8.34251e-07
8.34253e-07
8.34251e-07
8.34253e-07
8.34251e-07
8.35517e-07
8.35637e-07
8.35743e-07
8.36095e-07
8.3557e-07
8.35329e-07
8.3425e-07
8.34251e-07
8.3425e-07
8.3555e-07
8.35637e-07
8.35719e-07
8.36222e-07
8.36097e-07
8.35659e-07
8.3574e-07
8.35739e-07
8.35737e-07
8.35718e-07
8.35743e-07
8.36222e-07
8.36097e-07
8.36262e-07
8.3629e-07
8.36288e-07
8.36241e-07
8.28231e-07
8.27637e-07
8.27583e-07
8.27629e-07
8.28266e-07
8.28264e-07
8.28233e-07
8.27713e-07
8.27347e-07
8.26422e-07
8.26423e-07
8.26422e-07
8.27498e-07
8.27746e-07
8.28267e-07
8.27713e-07
8.27307e-07
8.26423e-07
8.26425e-07
8.26423e-07
8.26425e-07
8.26423e-07
8.27475e-07
8.27743e-07
8.2827e-07
8.28231e-07
8.27347e-07
8.26423e-07
8.26424e-07
8.26423e-07
8.26424e-07
8.26423e-07
8.26424e-07
8.26423e-07
8.27501e-07
8.27831e-07
8.28269e-07
8.27637e-07
8.26422e-07
8.26425e-07
8.26423e-07
8.26425e-07
8.26423e-07
8.26425e-07
8.26423e-07
8.26425e-07
8.26422e-07
8.27913e-07
8.28435e-07
8.27583e-07
8.26423e-07
8.26423e-07
8.26424e-07
8.26423e-07
8.26424e-07
8.26423e-07
8.26424e-07
8.26423e-07
8.26423e-07
8.27912e-07
8.28462e-07
8.27629e-07
8.26422e-07
8.26425e-07
8.26423e-07
8.26425e-07
8.26423e-07
8.26425e-07
8.26423e-07
8.26425e-07
8.26422e-07
8.27909e-07
8.28461e-07
8.28266e-07
8.27498e-07
8.26423e-07
8.26424e-07
8.26423e-07
8.26424e-07
8.26423e-07
8.26424e-07
8.26423e-07
8.27722e-07
8.2789e-07
8.28413e-07
8.28264e-07
8.27746e-07
8.27475e-07
8.26423e-07
8.26425e-07
8.26423e-07
8.26425e-07
8.26423e-07
8.27689e-07
8.2781e-07
8.27915e-07
8.28267e-07
8.27743e-07
8.27501e-07
8.26422e-07
8.26423e-07
8.26422e-07
8.27722e-07
8.2781e-07
8.27891e-07
8.28394e-07
8.2827e-07
8.27831e-07
8.27913e-07
8.27912e-07
8.27909e-07
8.2789e-07
8.27915e-07
8.28394e-07
8.28269e-07
8.28435e-07
8.28462e-07
8.28461e-07
8.28413e-07
8.20403e-07
8.1981e-07
8.19756e-07
8.19801e-07
8.20438e-07
8.20437e-07
8.20405e-07
8.19885e-07
8.19519e-07
8.18595e-07
8.18596e-07
8.18595e-07
8.19671e-07
8.19918e-07
8.20439e-07
8.19886e-07
8.19479e-07
8.18595e-07
8.18597e-07
8.18596e-07
8.18597e-07
8.18595e-07
8.19647e-07
8.19915e-07
8.20442e-07
8.20403e-07
8.19519e-07
8.18595e-07
8.18596e-07
8.18595e-07
8.18596e-07
8.18595e-07
8.18596e-07
8.18595e-07
8.19673e-07
8.20004e-07
8.20441e-07
8.1981e-07
8.18595e-07
8.18597e-07
8.18595e-07
8.18597e-07
8.18596e-07
8.18597e-07
8.18595e-07
8.18597e-07
8.18595e-07
8.20085e-07
8.20607e-07
8.19756e-07
8.18596e-07
8.18596e-07
8.18596e-07
8.18596e-07
8.18596e-07
8.18596e-07
8.18596e-07
8.18596e-07
8.18596e-07
8.20084e-07
8.20634e-07
8.19801e-07
8.18595e-07
8.18597e-07
8.18595e-07
8.18597e-07
8.18596e-07
8.18597e-07
8.18595e-07
8.18597e-07
8.18595e-07
8.20082e-07
8.20633e-07
8.20438e-07
8.19671e-07
8.18595e-07
8.18596e-07
8.18595e-07
8.18596e-07
8.18595e-07
8.18596e-07
8.18595e-07
8.19894e-07
8.20062e-07
8.20586e-07
8.20437e-07
8.19918e-07
8.19647e-07
8.18595e-07
8.18597e-07
8.18596e-07
8.18597e-07
8.18595e-07
8.19861e-07
8.19982e-07
8.20088e-07
8.20439e-07
8.19915e-07
8.19673e-07
8.18595e-07
8.18596e-07
8.18595e-07
8.19894e-07
8.19982e-07
8.20063e-07
8.20566e-07
8.20442e-07
8.20004e-07
8.20085e-07
8.20084e-07
8.20082e-07
8.20062e-07
8.20088e-07
8.20566e-07
8.20441e-07
8.20607e-07
8.20634e-07
8.20633e-07
8.20586e-07
8.12575e-07
8.11982e-07
8.11928e-07
8.11973e-07
8.1261e-07
8.12609e-07
8.12578e-07
8.12058e-07
8.11691e-07
8.10767e-07
8.10768e-07
8.10767e-07
8.11843e-07
8.1209e-07
8.12611e-07
8.12058e-07
8.11651e-07
8.10767e-07
8.10769e-07
8.10768e-07
8.10769e-07
8.10767e-07
8.1182e-07
8.12087e-07
8.12614e-07
8.12575e-07
8.11691e-07
8.10767e-07
8.10768e-07
8.10767e-07
8.10768e-07
8.10767e-07
8.10768e-07
8.10767e-07
8.11846e-07
8.12176e-07
8.12614e-07
8.11982e-07
8.10767e-07
8.10769e-07
8.10767e-07
8.10769e-07
8.10768e-07
8.10769e-07
8.10767e-07
8.10769e-07
8.10767e-07
8.12257e-07
8.12779e-07
8.11928e-07
8.10768e-07
8.10768e-07
8.10768e-07
8.10768e-07
8.10768e-07
8.10768e-07
8.10768e-07
8.10768e-07
8.10768e-07
8.12256e-07
8.12806e-07
8.11973e-07
8.10767e-07
8.10769e-07
8.10767e-07
8.10769e-07
8.10768e-07
8.10769e-07
8.10767e-07
8.10769e-07
8.10767e-07
8.12254e-07
8.12805e-07
8.1261e-07
8.11843e-07
8.10767e-07
8.10768e-07
8.10767e-07
8.10768e-07
8.10767e-07
8.10768e-07
8.10767e-07
8.12067e-07
8.12235e-07
8.12758e-07
8.12609e-07
8.1209e-07
8.1182e-07
8.10767e-07
8.10769e-07
8.10768e-07
8.10769e-07
8.10767e-07
8.12034e-07
8.12154e-07
8.1226e-07
8.12611e-07
8.12087e-07
8.11846e-07
8.10767e-07
8.10768e-07
8.10767e-07
8.12067e-07
8.12154e-07
8.12236e-07
8.12739e-07
8.12614e-07
8.12176e-07
8.12257e-07
8.12256e-07
8.12254e-07
8.12235e-07
8.1226e-07
8.12738e-07
8.12614e-07
8.12779e-07
8.12806e-07
8.12805e-07
8.12758e-07
8.04748e-07
8.04154e-07
8.041e-07
8.04146e-07
8.04783e-07
8.04781e-07
8.0475e-07
8.0423e-07
8.03864e-07
8.02939e-07
8.0294e-07
8.02939e-07
8.04015e-07
8.04263e-07
8.04784e-07
8.0423e-07
8.03824e-07
8.0294e-07
8.02942e-07
8.0294e-07
8.02942e-07
8.0294e-07
8.03992e-07
8.0426e-07
8.04787e-07
8.04748e-07
8.03864e-07
8.0294e-07
8.02941e-07
8.0294e-07
8.0294e-07
8.0294e-07
8.02941e-07
8.0294e-07
8.04018e-07
8.04348e-07
8.04786e-07
8.04154e-07
8.02939e-07
8.02942e-07
8.0294e-07
8.02942e-07
8.0294e-07
8.02942e-07
8.0294e-07
8.02942e-07
8.02939e-07
8.0443e-07
8.04951e-07
8.041e-07
8.0294e-07
8.0294e-07
8.0294e-07
8.0294e-07
8.0294e-07
8.0294e-07
8.0294e-07
8.0294e-07
8.0294e-07
8.04428e-07
8.04979e-07
8.04146e-07
8.02939e-07
8.02942e-07
8.0294e-07
8.02942e-07
8.0294e-07
8.02942e-07
8.0294e-07
8.02942e-07
8.02939e-07
8.04426e-07
8.04978e-07
8.04783e-07
8.04015e-07
8.0294e-07
8.02941e-07
8.0294e-07
8.0294e-07
8.0294e-07
8.02941e-07
8.0294e-07
8.04239e-07
8.04407e-07
8.0493e-07
8.04781e-07
8.04263e-07
8.03992e-07
8.0294e-07
8.02942e-07
8.0294e-07
8.02942e-07
8.0294e-07
8.04206e-07
8.04327e-07
8.04432e-07
8.04784e-07
8.0426e-07
8.04018e-07
8.02939e-07
8.0294e-07
8.02939e-07
8.04239e-07
8.04327e-07
8.04408e-07
8.04911e-07
8.04787e-07
8.04348e-07
8.0443e-07
8.04428e-07
8.04426e-07
8.04407e-07
8.04432e-07
8.04911e-07
8.04786e-07
8.04951e-07
8.04979e-07
8.04978e-07
8.0493e-07
7.9692e-07
7.96327e-07
7.96273e-07
7.96318e-07
7.96955e-07
7.96954e-07
7.96923e-07
7.96403e-07
7.96036e-07
7.95112e-07
7.95113e-07
7.95112e-07
7.96187e-07
7.96435e-07
7.96956e-07
7.96403e-07
7.95996e-07
7.95112e-07
7.95114e-07
7.95113e-07
7.95114e-07
7.95112e-07
7.96164e-07
7.96432e-07
7.96959e-07
7.9692e-07
7.96036e-07
7.95112e-07
7.95113e-07
7.95112e-07
7.95113e-07
7.95112e-07
7.95113e-07
7.95112e-07
7.9619e-07
7.96521e-07
7.96958e-07
7.96327e-07
7.95112e-07
7.95114e-07
7.95112e-07
7.95114e-07
7.95112e-07
7.95114e-07
7.95112e-07
7.95114e-07
7.95112e-07
7.96602e-07
7.97124e-07
7.96272e-07
7.95113e-07
7.95112e-07
7.95113e-07
7.95112e-07
7.95113e-07
7.95112e-07
7.95113e-07
7.95113e-07
7.95113e-07
7.96601e-07
7.97151e-07
7.96318e-07
7.95112e-07
7.95114e-07
7.95112e-07
7.95114e-07
7.95112e-07
7.95114e-07
7.95112e-07
7.95114e-07
7.95112e-07
7.96599e-07
7.9715e-07
7.96955e-07
7.96187e-07
7.95112e-07
7.95113e-07
7.95112e-07
7.95113e-07
7.95112e-07
7.95113e-07
7.95112e-07
7.96411e-07
7.96579e-07
7.97103e-07
7.96953e-07
7.96435e-07
7.96164e-07
7.95112e-07
7.95114e-07
7.95112e-07
7.95114e-07
7.95112e-07
7.96378e-07
7.96499e-07
7.96604e-07
7.96956e-07
7.96432e-07
7.9619e-07
7.95112e-07
7.95113e-07
7.95112e-07
7.96411e-07
7.96499e-07
7.9658e-07
7.97083e-07
7.96959e-07
7.96521e-07
7.96602e-07
7.96601e-07
7.96598e-07
7.96579e-07
7.96604e-07
7.97083e-07
7.96958e-07
7.97124e-07
7.97151e-07
7.9715e-07
7.97103e-07
7.89092e-07
7.88499e-07
7.88445e-07
7.8849e-07
7.89127e-07
7.89126e-07
7.89095e-07
7.88575e-07
7.88208e-07
7.87284e-07
7.87285e-07
7.87284e-07
7.8836e-07
7.88607e-07
7.89128e-07
7.88575e-07
7.88168e-07
7.87284e-07
7.87286e-07
7.87285e-07
7.87286e-07
7.87284e-07
7.88336e-07
7.88604e-07
7.89131e-07
7.89092e-07
7.88208e-07
7.87284e-07
7.87285e-07
7.87284e-07
7.87285e-07
7.87284e-07
7.87285e-07
7.87284e-07
7.88363e-07
7.88693e-07
7.8913e-07
7.88499e-07
7.87284e-07
7.87286e-07
7.87284e-07
7.87286e-07
7.87285e-07
7.87286e-07
7.87284e-07
7.87286e-07
7.87284e-07
7.88774e-07
7.89296e-07
7.88445e-07
7.87285e-07
7.87285e-07
7.87285e-07
7.87285e-07
7.87285e-07
7.87285e-07
7.87285e-07
7.87285e-07
7.87285e-07
7.88773e-07
7.89323e-07
7.8849e-07
7.87284e-07
7.87286e-07
7.87284e-07
7.87286e-07
7.87285e-07
7.87286e-07
7.87284e-07
7.87286e-07
7.87284e-07
7.88771e-07
7.89322e-07
7.89127e-07
7.8836e-07
7.87284e-07
7.87285e-07
7.87284e-07
7.87285e-07
7.87284e-07
7.87285e-07
7.87284e-07
7.88584e-07
7.88752e-07
7.89275e-07
7.89126e-07
7.88607e-07
7.88336e-07
7.87284e-07
7.87286e-07
7.87285e-07
7.87286e-07
7.87284e-07
7.88551e-07
7.88671e-07
7.88777e-07
7.89128e-07
7.88604e-07
7.88363e-07
7.87284e-07
7.87285e-07
7.87284e-07
7.88584e-07
7.88671e-07
7.88753e-07
7.89255e-07
7.89131e-07
7.88693e-07
7.88774e-07
7.88773e-07
7.88771e-07
7.88751e-07
7.88777e-07
7.89255e-07
7.8913e-07
7.89296e-07
7.89323e-07
7.89322e-07
7.89275e-07
7.81265e-07
7.80671e-07
7.80617e-07
7.80663e-07
7.81299e-07
7.81298e-07
7.81267e-07
7.80747e-07
7.80381e-07
7.79456e-07
7.79457e-07
7.79456e-07
7.80532e-07
7.80779e-07
7.81301e-07
7.80747e-07
7.80341e-07
7.79457e-07
7.79459e-07
7.79457e-07
7.79459e-07
7.79457e-07
7.80509e-07
7.80776e-07
7.81303e-07
7.81264e-07
7.80381e-07
7.79457e-07
7.79458e-07
7.79457e-07
7.79457e-07
7.79457e-07
7.79458e-07
7.79457e-07
7.80535e-07
7.80865e-07
7.81303e-07
7.80671e-07
7.79456e-07
7.79459e-07
7.79457e-07
7.79458e-07
7.79457e-07
7.79458e-07
7.79457e-07
7.79459e-07
7.79456e-07
7.80946e-07
7.81468e-07
7.80617e-07
7.79457e-07
7.79457e-07
7.79457e-07
7.79457e-07
7.79457e-07
7.79457e-07
7.79457e-07
7.79457e-07
7.79457e-07
7.80945e-07
7.81496e-07
7.80663e-07
7.79456e-07
7.79459e-07
7.79457e-07
7.79458e-07
7.79457e-07
7.79458e-07
7.79457e-07
7.79459e-07
7.79456e-07
7.80943e-07
7.81495e-07
7.81299e-07
7.80532e-07
7.79457e-07
7.79458e-07
7.79457e-07
7.79457e-07
7.79457e-07
7.79458e-07
7.79457e-07
7.80756e-07
7.80924e-07
7.81447e-07
7.81298e-07
7.80779e-07
7.80509e-07
7.79457e-07
7.79459e-07
7.79457e-07
7.79459e-07
7.79457e-07
7.80723e-07
7.80844e-07
7.80949e-07
7.81301e-07
7.80776e-07
7.80535e-07
7.79456e-07
7.79457e-07
7.79456e-07
7.80756e-07
7.80844e-07
7.80925e-07
7.81428e-07
7.81303e-07
7.80865e-07
7.80946e-07
7.80945e-07
7.80943e-07
7.80924e-07
7.80949e-07
7.81428e-07
7.81303e-07
7.81468e-07
7.81496e-07
7.81495e-07
7.81447e-07
7.73437e-07
7.72844e-07
7.72789e-07
7.72835e-07
7.73472e-07
7.7347e-07
7.73439e-07
7.7292e-07
7.72553e-07
7.71628e-07
7.7163e-07
7.71628e-07
7.72704e-07
7.72952e-07
7.73473e-07
7.7292e-07
7.72513e-07
7.71629e-07
7.71631e-07
7.71629e-07
7.71631e-07
7.71629e-07
7.72681e-07
7.72949e-07
7.73476e-07
7.73437e-07
7.72553e-07
7.71629e-07
7.7163e-07
7.71629e-07
7.7163e-07
7.71629e-07
7.7163e-07
7.71629e-07
7.72707e-07
7.73037e-07
7.73475e-07
7.72843e-07
7.71628e-07
7.71631e-07
7.71629e-07
7.71631e-07
7.71629e-07
7.71631e-07
7.71629e-07
7.71631e-07
7.71628e-07
7.73119e-07
7.73641e-07
7.72789e-07
7.7163e-07
7.71629e-07
7.7163e-07
7.71629e-07
7.7163e-07
7.71629e-07
7.7163e-07
7.71629e-07
7.71629e-07
7.73118e-07
7.73668e-07
7.72835e-07
7.71628e-07
7.71631e-07
7.71629e-07
7.71631e-07
7.71629e-07
7.71631e-07
7.71629e-07