/*--------------------------------*- C++ -*----------------------------------*\
| =========                 |                                                 |
| \\      /  F ield         | OpenFOAM: The Open Source CFD Toolbox           |
|  \\    /   O peration     | Version:  v2012                                 |
|   \\  /    A nd           | Website:  www.openfoam.com                      |
|    \\/     M anipulation  |                                                 |
\*---------------------------------------------------------------------------*/
FoamFile
{
    version     2.0;
    format      ascii;
    class       volScalarField;
    location    "44";
    object      p;
}
// * * * * * * * * * * * * * * * * * * * * * * * * * * * * * * * * * * * * * //

dimensions      [0 2 -2 0 0 0 0];


internalField   nonuniform List<scalar> 
292667
(
1.25195e-06
1.24228e-06
1.24149e-06
1.24156e-06
1.24266e-06
1.25287e-06
1.24249e-06
1.2397e-06
1.23808e-06
1.23741e-06
1.2375e-06
1.23837e-06
1.24024e-06
1.24329e-06
1.24249e-06
1.23889e-06
1.23665e-06
1.23542e-06
1.2349e-06
1.23497e-06
1.23564e-06
1.23707e-06
1.2396e-06
1.24353e-06
1.25195e-06
1.2397e-06
1.23665e-06
1.23484e-06
1.23383e-06
1.2334e-06
1.23345e-06
1.23402e-06
1.23519e-06
1.23725e-06
1.24068e-06
1.25167e-06
1.24228e-06
1.23808e-06
1.23542e-06
1.23383e-06
1.23293e-06
1.23254e-06
1.23259e-06
1.2331e-06
1.23415e-06
1.23595e-06
1.23897e-06
1.24609e-06
1.24149e-06
1.23741e-06
1.2349e-06
1.2334e-06
1.23254e-06
1.23216e-06
1.23222e-06
1.2327e-06
1.2337e-06
1.23541e-06
1.23828e-06
1.24435e-06
1.24156e-06
1.2375e-06
1.23497e-06
1.23345e-06
1.23259e-06
1.23222e-06
1.23227e-06
1.23276e-06
1.23376e-06
1.23549e-06
1.23837e-06
1.24468e-06
1.24266e-06
1.23837e-06
1.23564e-06
1.23402e-06
1.2331e-06
1.2327e-06
1.23276e-06
1.23327e-06
1.23435e-06
1.2362e-06
1.23931e-06
1.24642e-06
1.25287e-06
1.24024e-06
1.23707e-06
1.23519e-06
1.23415e-06
1.2337e-06
1.23376e-06
1.23435e-06
1.23557e-06
1.23773e-06
1.24128e-06
1.2516e-06
1.24329e-06
1.2396e-06
1.23725e-06
1.23595e-06
1.23541e-06
1.23549e-06
1.2362e-06
1.23773e-06
1.2404e-06
1.24702e-06
1.24353e-06
1.24068e-06
1.23897e-06
1.23827e-06
1.23837e-06
1.23931e-06
1.24128e-06
1.24702e-06
1.25167e-06
1.24609e-06
1.24435e-06
1.24468e-06
1.24642e-06
1.2516e-06
1.22444e-06
1.2235e-06
1.22347e-06
1.2235e-06
1.22439e-06
1.2243e-06
1.2245e-06
1.22375e-06
1.22335e-06
1.22186e-06
1.22183e-06
1.22186e-06
1.22351e-06
1.22377e-06
1.2245e-06
1.22375e-06
1.22335e-06
1.22191e-06
1.22184e-06
1.22189e-06
1.22184e-06
1.22191e-06
1.22348e-06
1.22375e-06
1.22447e-06
1.22444e-06
1.22335e-06
1.22191e-06
1.22184e-06
1.22188e-06
1.22187e-06
1.22188e-06
1.22184e-06
1.22191e-06
1.22347e-06
1.22377e-06
1.22455e-06
1.2235e-06
1.22186e-06
1.22184e-06
1.22188e-06
1.22184e-06
1.22184e-06
1.22184e-06
1.22188e-06
1.22184e-06
1.22186e-06
1.2239e-06
1.22466e-06
1.22347e-06
1.22183e-06
1.22189e-06
1.22187e-06
1.22184e-06
1.22184e-06
1.22184e-06
1.22187e-06
1.22189e-06
1.22183e-06
1.2239e-06
1.22454e-06
1.2235e-06
1.22186e-06
1.22184e-06
1.22188e-06
1.22184e-06
1.22184e-06
1.22184e-06
1.22188e-06
1.22184e-06
1.22186e-06
1.22391e-06
1.22457e-06
1.22439e-06
1.22351e-06
1.22191e-06
1.22184e-06
1.22188e-06
1.22187e-06
1.22188e-06
1.22184e-06
1.22191e-06
1.22363e-06
1.22381e-06
1.22462e-06
1.2243e-06
1.22377e-06
1.22348e-06
1.22191e-06
1.22184e-06
1.22189e-06
1.22184e-06
1.22191e-06
1.22359e-06
1.22378e-06
1.22381e-06
1.2245e-06
1.22375e-06
1.22347e-06
1.22186e-06
1.22183e-06
1.22186e-06
1.22363e-06
1.22378e-06
1.22387e-06
1.22461e-06
1.22447e-06
1.22377e-06
1.2239e-06
1.2239e-06
1.22391e-06
1.22381e-06
1.22381e-06
1.22461e-06
1.22455e-06
1.22466e-06
1.22454e-06
1.22457e-06
1.22462e-06
1.21401e-06
1.21308e-06
1.21301e-06
1.21306e-06
1.21398e-06
1.21404e-06
1.21405e-06
1.21322e-06
1.21276e-06
1.2113e-06
1.21129e-06
1.2113e-06
1.21291e-06
1.21324e-06
1.21401e-06
1.21322e-06
1.21275e-06
1.21135e-06
1.21135e-06
1.21139e-06
1.21135e-06
1.21135e-06
1.21291e-06
1.21324e-06
1.21401e-06
1.21401e-06
1.21276e-06
1.21135e-06
1.21136e-06
1.21142e-06
1.21142e-06
1.21142e-06
1.21136e-06
1.21135e-06
1.21292e-06
1.21329e-06
1.21407e-06
1.21308e-06
1.2113e-06
1.21135e-06
1.21142e-06
1.21143e-06
1.21145e-06
1.21143e-06
1.21142e-06
1.21135e-06
1.2113e-06
1.21333e-06
1.21418e-06
1.21301e-06
1.21129e-06
1.21139e-06
1.21142e-06
1.21145e-06
1.21146e-06
1.21145e-06
1.21142e-06
1.21139e-06
1.21129e-06
1.21332e-06
1.21419e-06
1.21306e-06
1.2113e-06
1.21135e-06
1.21142e-06
1.21143e-06
1.21145e-06
1.21143e-06
1.21142e-06
1.21135e-06
1.2113e-06
1.21333e-06
1.21419e-06
1.21398e-06
1.21291e-06
1.21135e-06
1.21136e-06
1.21142e-06
1.21142e-06
1.21142e-06
1.21136e-06
1.21135e-06
1.2131e-06
1.21332e-06
1.21419e-06
1.21404e-06
1.21324e-06
1.21291e-06
1.21135e-06
1.21135e-06
1.21139e-06
1.21135e-06
1.21135e-06
1.21308e-06
1.21326e-06
1.21337e-06
1.21401e-06
1.21324e-06
1.21292e-06
1.2113e-06
1.21129e-06
1.2113e-06
1.2131e-06
1.21326e-06
1.21335e-06
1.21417e-06
1.21401e-06
1.21329e-06
1.21333e-06
1.21332e-06
1.21333e-06
1.21332e-06
1.21337e-06
1.21417e-06
1.21407e-06
1.21418e-06
1.21419e-06
1.21419e-06
1.21419e-06
1.20364e-06
1.20269e-06
1.20262e-06
1.20267e-06
1.2036e-06
1.20367e-06
1.20367e-06
1.20283e-06
1.20234e-06
1.20086e-06
1.20086e-06
1.20086e-06
1.20249e-06
1.20283e-06
1.20363e-06
1.20283e-06
1.20232e-06
1.20089e-06
1.2009e-06
1.20092e-06
1.2009e-06
1.20089e-06
1.20248e-06
1.20283e-06
1.20364e-06
1.20364e-06
1.20234e-06
1.20089e-06
1.20091e-06
1.20095e-06
1.20095e-06
1.20095e-06
1.20091e-06
1.20089e-06
1.20249e-06
1.20291e-06
1.20369e-06
1.20269e-06
1.20086e-06
1.2009e-06
1.20095e-06
1.20097e-06
1.20098e-06
1.20097e-06
1.20095e-06
1.2009e-06
1.20086e-06
1.20293e-06
1.20381e-06
1.20262e-06
1.20086e-06
1.20092e-06
1.20095e-06
1.20098e-06
1.20099e-06
1.20098e-06
1.20095e-06
1.20092e-06
1.20086e-06
1.20292e-06
1.20381e-06
1.20267e-06
1.20086e-06
1.2009e-06
1.20095e-06
1.20097e-06
1.20098e-06
1.20097e-06
1.20095e-06
1.2009e-06
1.20086e-06
1.20292e-06
1.20381e-06
1.2036e-06
1.20249e-06
1.20089e-06
1.20091e-06
1.20095e-06
1.20095e-06
1.20095e-06
1.20091e-06
1.20089e-06
1.20269e-06
1.20294e-06
1.20382e-06
1.20367e-06
1.20283e-06
1.20248e-06
1.20089e-06
1.2009e-06
1.20092e-06
1.2009e-06
1.20089e-06
1.20266e-06
1.20286e-06
1.203e-06
1.20363e-06
1.20283e-06
1.20249e-06
1.20086e-06
1.20086e-06
1.20086e-06
1.20269e-06
1.20286e-06
1.20297e-06
1.2038e-06
1.20364e-06
1.20291e-06
1.20293e-06
1.20291e-06
1.20292e-06
1.20294e-06
1.203e-06
1.2038e-06
1.20369e-06
1.20381e-06
1.20381e-06
1.20381e-06
1.20382e-06
1.19326e-06
1.19231e-06
1.19224e-06
1.19229e-06
1.19323e-06
1.19329e-06
1.1933e-06
1.19244e-06
1.19195e-06
1.19046e-06
1.19046e-06
1.19046e-06
1.1921e-06
1.19245e-06
1.19326e-06
1.19244e-06
1.19192e-06
1.19047e-06
1.19048e-06
1.19049e-06
1.19048e-06
1.19047e-06
1.19208e-06
1.19244e-06
1.19326e-06
1.19326e-06
1.19195e-06
1.19047e-06
1.19049e-06
1.19051e-06
1.19052e-06
1.19051e-06
1.19049e-06
1.19047e-06
1.1921e-06
1.19252e-06
1.19332e-06
1.19231e-06
1.19046e-06
1.19048e-06
1.19051e-06
1.19053e-06
1.19054e-06
1.19053e-06
1.19051e-06
1.19048e-06
1.19046e-06
1.19254e-06
1.19343e-06
1.19224e-06
1.19046e-06
1.19049e-06
1.19052e-06
1.19054e-06
1.19054e-06
1.19054e-06
1.19052e-06
1.19049e-06
1.19046e-06
1.19253e-06
1.19343e-06
1.19229e-06
1.19046e-06
1.19048e-06
1.19051e-06
1.19053e-06
1.19054e-06
1.19053e-06
1.19051e-06
1.19048e-06
1.19046e-06
1.19253e-06
1.19343e-06
1.19323e-06
1.1921e-06
1.19047e-06
1.19049e-06
1.19051e-06
1.19052e-06
1.19051e-06
1.19049e-06
1.19047e-06
1.19229e-06
1.19255e-06
1.19344e-06
1.19329e-06
1.19245e-06
1.19208e-06
1.19047e-06
1.19048e-06
1.19049e-06
1.19048e-06
1.19047e-06
1.19226e-06
1.19247e-06
1.19262e-06
1.19326e-06
1.19244e-06
1.1921e-06
1.19046e-06
1.19046e-06
1.19046e-06
1.19229e-06
1.19247e-06
1.19259e-06
1.19342e-06
1.19326e-06
1.19252e-06
1.19254e-06
1.19253e-06
1.19253e-06
1.19255e-06
1.19262e-06
1.19342e-06
1.19332e-06
1.19343e-06
1.19343e-06
1.19343e-06
1.19344e-06
1.18288e-06
1.18193e-06
1.18185e-06
1.1819e-06
1.18285e-06
1.18291e-06
1.18292e-06
1.18206e-06
1.18157e-06
1.18007e-06
1.18007e-06
1.18007e-06
1.18171e-06
1.18206e-06
1.18288e-06
1.18206e-06
1.18153e-06
1.18008e-06
1.18008e-06
1.18009e-06
1.18008e-06
1.18008e-06
1.18169e-06
1.18206e-06
1.18288e-06
1.18288e-06
1.18157e-06
1.18008e-06
1.18009e-06
1.1801e-06
1.1801e-06
1.1801e-06
1.18009e-06
1.18008e-06
1.18171e-06
1.18214e-06
1.18293e-06
1.18193e-06
1.18007e-06
1.18008e-06
1.1801e-06
1.18011e-06
1.18011e-06
1.18011e-06
1.1801e-06
1.18008e-06
1.18007e-06
1.18216e-06
1.18305e-06
1.18185e-06
1.18007e-06
1.18009e-06
1.1801e-06
1.18011e-06
1.18012e-06
1.18011e-06
1.1801e-06
1.18009e-06
1.18007e-06
1.18214e-06
1.18305e-06
1.1819e-06
1.18007e-06
1.18008e-06
1.1801e-06
1.18011e-06
1.18011e-06
1.18011e-06
1.1801e-06
1.18008e-06
1.18007e-06
1.18215e-06
1.18305e-06
1.18285e-06
1.18171e-06
1.18008e-06
1.18009e-06
1.1801e-06
1.1801e-06
1.1801e-06
1.18009e-06
1.18008e-06
1.18191e-06
1.18217e-06
1.18306e-06
1.18291e-06
1.18206e-06
1.18169e-06
1.18008e-06
1.18008e-06
1.18009e-06
1.18008e-06
1.18008e-06
1.18187e-06
1.18209e-06
1.18224e-06
1.18288e-06
1.18206e-06
1.18171e-06
1.18007e-06
1.18007e-06
1.18007e-06
1.18191e-06
1.18209e-06
1.18221e-06
1.18304e-06
1.18288e-06
1.18214e-06
1.18216e-06
1.18214e-06
1.18215e-06
1.18217e-06
1.18224e-06
1.18304e-06
1.18293e-06
1.18305e-06
1.18305e-06
1.18305e-06
1.18306e-06
1.1725e-06
1.17154e-06
1.17147e-06
1.17152e-06
1.17246e-06
1.17253e-06
1.17253e-06
1.17168e-06
1.17118e-06
1.16968e-06
1.16968e-06
1.16968e-06
1.17132e-06
1.17168e-06
1.17249e-06
1.17168e-06
1.17115e-06
1.16969e-06
1.16969e-06
1.16969e-06
1.16969e-06
1.16969e-06
1.1713e-06
1.17168e-06
1.1725e-06
1.1725e-06
1.17118e-06
1.16969e-06
1.16969e-06
1.1697e-06
1.1697e-06
1.1697e-06
1.16969e-06
1.16969e-06
1.17132e-06
1.17176e-06
1.17255e-06
1.17154e-06
1.16968e-06
1.16969e-06
1.1697e-06
1.1697e-06
1.16971e-06
1.1697e-06
1.1697e-06
1.16969e-06
1.16968e-06
1.17178e-06
1.17267e-06
1.17147e-06
1.16968e-06
1.16969e-06
1.1697e-06
1.16971e-06
1.16971e-06
1.16971e-06
1.1697e-06
1.16969e-06
1.16968e-06
1.17176e-06
1.17267e-06
1.17152e-06
1.16968e-06
1.16969e-06
1.1697e-06
1.1697e-06
1.16971e-06
1.1697e-06
1.1697e-06
1.16969e-06
1.16968e-06
1.17177e-06
1.17267e-06
1.17246e-06
1.17132e-06
1.16969e-06
1.16969e-06
1.1697e-06
1.1697e-06
1.1697e-06
1.16969e-06
1.16969e-06
1.17152e-06
1.17179e-06
1.17267e-06
1.17253e-06
1.17168e-06
1.1713e-06
1.16969e-06
1.16969e-06
1.16969e-06
1.16969e-06
1.16969e-06
1.17149e-06
1.1717e-06
1.17186e-06
1.17249e-06
1.17168e-06
1.17132e-06
1.16968e-06
1.16968e-06
1.16968e-06
1.17152e-06
1.1717e-06
1.17183e-06
1.17266e-06
1.1725e-06
1.17176e-06
1.17178e-06
1.17176e-06
1.17177e-06
1.17179e-06
1.17186e-06
1.17266e-06
1.17255e-06
1.17267e-06
1.17267e-06
1.17267e-06
1.17267e-06
1.16211e-06
1.16116e-06
1.16109e-06
1.16114e-06
1.16208e-06
1.16215e-06
1.16215e-06
1.16129e-06
1.1608e-06
1.1593e-06
1.1593e-06
1.1593e-06
1.16094e-06
1.16129e-06
1.16211e-06
1.16129e-06
1.16076e-06
1.1593e-06
1.1593e-06
1.1593e-06
1.1593e-06
1.1593e-06
1.16092e-06
1.16129e-06
1.16212e-06
1.16211e-06
1.1608e-06
1.1593e-06
1.1593e-06
1.15931e-06
1.15931e-06
1.15931e-06
1.1593e-06
1.1593e-06
1.16094e-06
1.16138e-06
1.16217e-06
1.16116e-06
1.1593e-06
1.1593e-06
1.15931e-06
1.15931e-06
1.15931e-06
1.15931e-06
1.15931e-06
1.1593e-06
1.1593e-06
1.16139e-06
1.16229e-06
1.16109e-06
1.1593e-06
1.1593e-06
1.15931e-06
1.15931e-06
1.15931e-06
1.15931e-06
1.15931e-06
1.1593e-06
1.1593e-06
1.16137e-06
1.16228e-06
1.16114e-06
1.1593e-06
1.1593e-06
1.15931e-06
1.15931e-06
1.15931e-06
1.15931e-06
1.15931e-06
1.1593e-06
1.1593e-06
1.16138e-06
1.16229e-06
1.16208e-06
1.16094e-06
1.1593e-06
1.1593e-06
1.15931e-06
1.15931e-06
1.15931e-06
1.1593e-06
1.1593e-06
1.16114e-06
1.16141e-06
1.16229e-06
1.16215e-06
1.16129e-06
1.16092e-06
1.1593e-06
1.1593e-06
1.1593e-06
1.1593e-06
1.1593e-06
1.1611e-06
1.16132e-06
1.16147e-06
1.16211e-06
1.16129e-06
1.16094e-06
1.1593e-06
1.1593e-06
1.1593e-06
1.16114e-06
1.16132e-06
1.16145e-06
1.16228e-06
1.16212e-06
1.16138e-06
1.16139e-06
1.16137e-06
1.16138e-06
1.16141e-06
1.16147e-06
1.16228e-06
1.16217e-06
1.16229e-06
1.16228e-06
1.16229e-06
1.16229e-06
1.15173e-06
1.15078e-06
1.15071e-06
1.15075e-06
1.1517e-06
1.15176e-06
1.15177e-06
1.15091e-06
1.15041e-06
1.14891e-06
1.14891e-06
1.14891e-06
1.15056e-06
1.15091e-06
1.15173e-06
1.15091e-06
1.15038e-06
1.14891e-06
1.14892e-06
1.14892e-06
1.14892e-06
1.14891e-06
1.15053e-06
1.15091e-06
1.15173e-06
1.15173e-06
1.15041e-06
1.14891e-06
1.14892e-06
1.14892e-06
1.14892e-06
1.14892e-06
1.14892e-06
1.14891e-06
1.15056e-06
1.15099e-06
1.15179e-06
1.15078e-06
1.14891e-06
1.14892e-06
1.14892e-06
1.14892e-06
1.14892e-06
1.14892e-06
1.14892e-06
1.14892e-06
1.14891e-06
1.15101e-06
1.1519e-06
1.15071e-06
1.14891e-06
1.14892e-06
1.14892e-06
1.14892e-06
1.14892e-06
1.14892e-06
1.14892e-06
1.14892e-06
1.14891e-06
1.15099e-06
1.1519e-06
1.15075e-06
1.14891e-06
1.14892e-06
1.14892e-06
1.14892e-06
1.14892e-06
1.14892e-06
1.14892e-06
1.14892e-06
1.14891e-06
1.151e-06
1.1519e-06
1.1517e-06
1.15056e-06
1.14891e-06
1.14892e-06
1.14892e-06
1.14892e-06
1.14892e-06
1.14892e-06
1.14891e-06
1.15075e-06
1.15102e-06
1.15191e-06
1.15176e-06
1.15091e-06
1.15053e-06
1.14891e-06
1.14892e-06
1.14892e-06
1.14892e-06
1.14891e-06
1.15072e-06
1.15094e-06
1.15109e-06
1.15173e-06
1.15091e-06
1.15056e-06
1.14891e-06
1.14891e-06
1.14891e-06
1.15075e-06
1.15094e-06
1.15107e-06
1.1519e-06
1.15173e-06
1.15099e-06
1.15101e-06
1.15099e-06
1.151e-06
1.15102e-06
1.15109e-06
1.1519e-06
1.15179e-06
1.1519e-06
1.1519e-06
1.1519e-06
1.15191e-06
1.14135e-06
1.14039e-06
1.14032e-06
1.14037e-06
1.14131e-06
1.14138e-06
1.14139e-06
1.14053e-06
1.14003e-06
1.13853e-06
1.13853e-06
1.13853e-06
1.14017e-06
1.14053e-06
1.14135e-06
1.14053e-06
1.14e-06
1.13853e-06
1.13853e-06
1.13853e-06
1.13853e-06
1.13853e-06
1.14015e-06
1.14053e-06
1.14135e-06
1.14135e-06
1.14003e-06
1.13853e-06
1.13853e-06
1.13853e-06
1.13853e-06
1.13853e-06
1.13853e-06
1.13853e-06
1.14017e-06
1.14061e-06
1.1414e-06
1.14039e-06
1.13853e-06
1.13853e-06
1.13853e-06
1.13853e-06
1.13853e-06
1.13853e-06
1.13853e-06
1.13853e-06
1.13853e-06
1.14063e-06
1.14152e-06
1.14032e-06
1.13853e-06
1.13853e-06
1.13853e-06
1.13853e-06
1.13853e-06
1.13853e-06
1.13853e-06
1.13853e-06
1.13853e-06
1.14061e-06
1.14152e-06
1.14037e-06
1.13853e-06
1.13853e-06
1.13853e-06
1.13853e-06
1.13853e-06
1.13853e-06
1.13853e-06
1.13853e-06
1.13853e-06
1.14062e-06
1.14152e-06
1.14131e-06
1.14017e-06
1.13853e-06
1.13853e-06
1.13853e-06
1.13853e-06
1.13853e-06
1.13853e-06
1.13853e-06
1.14037e-06
1.14064e-06
1.14153e-06
1.14138e-06
1.14053e-06
1.14015e-06
1.13853e-06
1.13853e-06
1.13853e-06
1.13853e-06
1.13853e-06
1.14034e-06
1.14055e-06
1.14071e-06
1.14135e-06
1.14053e-06
1.14017e-06
1.13853e-06
1.13853e-06
1.13853e-06
1.14037e-06
1.14055e-06
1.14068e-06
1.14151e-06
1.14135e-06
1.14061e-06
1.14063e-06
1.14061e-06
1.14062e-06
1.14064e-06
1.14071e-06
1.14151e-06
1.1414e-06
1.14152e-06
1.14152e-06
1.14152e-06
1.14153e-06
1.13096e-06
1.13001e-06
1.12994e-06
1.12999e-06
1.13093e-06
1.131e-06
1.131e-06
1.13015e-06
1.12965e-06
1.12815e-06
1.12815e-06
1.12815e-06
1.12979e-06
1.13014e-06
1.13096e-06
1.13015e-06
1.12961e-06
1.12815e-06
1.12815e-06
1.12815e-06
1.12815e-06
1.12815e-06
1.12977e-06
1.13014e-06
1.13097e-06
1.13096e-06
1.12965e-06
1.12815e-06
1.12815e-06
1.12815e-06
1.12815e-06
1.12815e-06
1.12815e-06
1.12815e-06
1.12979e-06
1.13023e-06
1.13102e-06
1.13001e-06
1.12815e-06
1.12815e-06
1.12815e-06
1.12815e-06
1.12815e-06
1.12815e-06
1.12815e-06
1.12815e-06
1.12815e-06
1.13024e-06
1.13114e-06
1.12994e-06
1.12815e-06
1.12815e-06
1.12815e-06
1.12815e-06
1.12815e-06
1.12815e-06
1.12815e-06
1.12815e-06
1.12815e-06
1.13022e-06
1.13113e-06
1.12999e-06
1.12815e-06
1.12815e-06
1.12815e-06
1.12815e-06
1.12815e-06
1.12815e-06
1.12815e-06
1.12815e-06
1.12815e-06
1.13023e-06
1.13114e-06
1.13093e-06
1.12979e-06
1.12815e-06
1.12815e-06
1.12815e-06
1.12815e-06
1.12815e-06
1.12815e-06
1.12815e-06
1.12999e-06
1.13026e-06
1.13114e-06
1.131e-06
1.13014e-06
1.12977e-06
1.12815e-06
1.12815e-06
1.12815e-06
1.12815e-06
1.12815e-06
1.12995e-06
1.13017e-06
1.13032e-06
1.13096e-06
1.13014e-06
1.12979e-06
1.12815e-06
1.12815e-06
1.12815e-06
1.12999e-06
1.13017e-06
1.1303e-06
1.13113e-06
1.13097e-06
1.13023e-06
1.13024e-06
1.13022e-06
1.13023e-06
1.13026e-06
1.13032e-06
1.13113e-06
1.13102e-06
1.13114e-06
1.13113e-06
1.13114e-06
1.13114e-06
1.12058e-06
1.11963e-06
1.11956e-06
1.1196e-06
1.12055e-06
1.12061e-06
1.12062e-06
1.11976e-06
1.11926e-06
1.11776e-06
1.11776e-06
1.11776e-06
1.11941e-06
1.11976e-06
1.12058e-06
1.11976e-06
1.11923e-06
1.11776e-06
1.11776e-06
1.11776e-06
1.11776e-06
1.11776e-06
1.11938e-06
1.11976e-06
1.12058e-06
1.12058e-06
1.11926e-06
1.11776e-06
1.11776e-06
1.11776e-06
1.11776e-06
1.11776e-06
1.11776e-06
1.11776e-06
1.11941e-06
1.11984e-06
1.12064e-06
1.11963e-06
1.11776e-06
1.11776e-06
1.11776e-06
1.11776e-06
1.11776e-06
1.11776e-06
1.11776e-06
1.11776e-06
1.11776e-06
1.11986e-06
1.12075e-06
1.11956e-06
1.11776e-06
1.11776e-06
1.11776e-06
1.11776e-06
1.11776e-06
1.11776e-06
1.11776e-06
1.11776e-06
1.11776e-06
1.11984e-06
1.12075e-06
1.1196e-06
1.11776e-06
1.11776e-06
1.11776e-06
1.11776e-06
1.11776e-06
1.11776e-06
1.11776e-06
1.11776e-06
1.11776e-06
1.11985e-06
1.12075e-06
1.12055e-06
1.11941e-06
1.11776e-06
1.11776e-06
1.11776e-06
1.11776e-06
1.11776e-06
1.11776e-06
1.11776e-06
1.1196e-06
1.11988e-06
1.12076e-06
1.12061e-06
1.11976e-06
1.11938e-06
1.11776e-06
1.11776e-06
1.11776e-06
1.11776e-06
1.11776e-06
1.11957e-06
1.11979e-06
1.11994e-06
1.12058e-06
1.11976e-06
1.11941e-06
1.11776e-06
1.11776e-06
1.11776e-06
1.1196e-06
1.11979e-06
1.11992e-06
1.12075e-06
1.12058e-06
1.11984e-06
1.11986e-06
1.11984e-06
1.11985e-06
1.11987e-06
1.11994e-06
1.12075e-06
1.12064e-06
1.12075e-06
1.12075e-06
1.12075e-06
1.12076e-06
1.1102e-06
1.10924e-06
1.10917e-06
1.10922e-06
1.11016e-06
1.11023e-06
1.11024e-06
1.10938e-06
1.10888e-06
1.10738e-06
1.10738e-06
1.10738e-06
1.10902e-06
1.10938e-06
1.1102e-06
1.10938e-06
1.10885e-06
1.10738e-06
1.10738e-06
1.10738e-06
1.10738e-06
1.10738e-06
1.109e-06
1.10938e-06
1.1102e-06
1.1102e-06
1.10888e-06
1.10738e-06
1.10738e-06
1.10738e-06
1.10738e-06
1.10738e-06
1.10738e-06
1.10738e-06
1.10902e-06
1.10946e-06
1.11025e-06
1.10924e-06
1.10738e-06
1.10738e-06
1.10738e-06
1.10738e-06
1.10738e-06
1.10738e-06
1.10738e-06
1.10738e-06
1.10738e-06
1.10948e-06
1.11037e-06
1.10917e-06
1.10738e-06
1.10738e-06
1.10738e-06
1.10738e-06
1.10738e-06
1.10738e-06
1.10738e-06
1.10738e-06
1.10738e-06
1.10946e-06
1.11037e-06
1.10922e-06
1.10738e-06
1.10738e-06
1.10738e-06
1.10738e-06
1.10738e-06
1.10738e-06
1.10738e-06
1.10738e-06
1.10738e-06
1.10947e-06
1.11037e-06
1.11016e-06
1.10902e-06
1.10738e-06
1.10738e-06
1.10738e-06
1.10738e-06
1.10738e-06
1.10738e-06
1.10738e-06
1.10922e-06
1.10949e-06
1.11038e-06
1.11023e-06
1.10938e-06
1.109e-06
1.10738e-06
1.10738e-06
1.10738e-06
1.10738e-06
1.10738e-06
1.10919e-06
1.1094e-06
1.10956e-06
1.1102e-06
1.10938e-06
1.10902e-06
1.10738e-06
1.10738e-06
1.10738e-06
1.10922e-06
1.1094e-06
1.10953e-06
1.11036e-06
1.1102e-06
1.10946e-06
1.10948e-06
1.10946e-06
1.10947e-06
1.10949e-06
1.10956e-06
1.11036e-06
1.11025e-06
1.11037e-06
1.11037e-06
1.11037e-06
1.11038e-06
1.09981e-06
1.09886e-06
1.09879e-06
1.09884e-06
1.09978e-06
1.09985e-06
1.09985e-06
1.099e-06
1.0985e-06
1.097e-06
1.097e-06
1.097e-06
1.09864e-06
1.099e-06
1.09981e-06
1.099e-06
1.09846e-06
1.097e-06
1.097e-06
1.097e-06
1.097e-06
1.097e-06
1.09862e-06
1.09899e-06
1.09982e-06
1.09981e-06
1.0985e-06
1.097e-06
1.097e-06
1.097e-06
1.097e-06
1.097e-06
1.097e-06
1.097e-06
1.09864e-06
1.09908e-06
1.09987e-06
1.09886e-06
1.097e-06
1.097e-06
1.097e-06
1.097e-06
1.097e-06
1.097e-06
1.097e-06
1.097e-06
1.097e-06
1.0991e-06
1.09999e-06
1.09879e-06
1.097e-06
1.097e-06
1.097e-06
1.097e-06
1.097e-06
1.097e-06
1.097e-06
1.097e-06
1.097e-06
1.09907e-06
1.09998e-06
1.09884e-06
1.097e-06
1.097e-06
1.097e-06
1.097e-06
1.097e-06
1.097e-06
1.097e-06
1.097e-06
1.097e-06
1.09908e-06
1.09999e-06
1.09978e-06
1.09864e-06
1.097e-06
1.097e-06
1.097e-06
1.097e-06
1.097e-06
1.097e-06
1.097e-06
1.09884e-06
1.09911e-06
1.09999e-06
1.09985e-06
1.099e-06
1.09862e-06
1.097e-06
1.097e-06
1.097e-06
1.097e-06
1.097e-06
1.0988e-06
1.09902e-06
1.09918e-06
1.09981e-06
1.09899e-06
1.09864e-06
1.097e-06
1.097e-06
1.097e-06
1.09884e-06
1.09902e-06
1.09915e-06
1.09998e-06
1.09982e-06
1.09908e-06
1.0991e-06
1.09907e-06
1.09908e-06
1.09911e-06
1.09918e-06
1.09998e-06
1.09987e-06
1.09999e-06
1.09998e-06
1.09999e-06
1.09999e-06
1.08943e-06
1.08848e-06
1.08841e-06
1.08845e-06
1.0894e-06
1.08946e-06
1.08947e-06
1.08861e-06
1.08811e-06
1.08661e-06
1.08661e-06
1.08661e-06
1.08826e-06
1.08861e-06
1.08943e-06
1.08861e-06
1.08808e-06
1.08661e-06
1.08661e-06
1.08661e-06
1.08661e-06
1.08661e-06
1.08823e-06
1.08861e-06
1.08943e-06
1.08943e-06
1.08811e-06
1.08661e-06
1.08661e-06
1.08661e-06
1.08661e-06
1.08661e-06
1.08661e-06
1.08661e-06
1.08826e-06
1.08869e-06
1.08949e-06
1.08848e-06
1.08661e-06
1.08661e-06
1.08661e-06
1.08661e-06
1.08661e-06
1.08661e-06
1.08661e-06
1.08661e-06
1.08661e-06
1.08871e-06
1.0896e-06
1.08841e-06
1.08661e-06
1.08661e-06
1.08661e-06
1.08661e-06
1.08661e-06
1.08661e-06
1.08661e-06
1.08661e-06
1.08661e-06
1.08869e-06
1.0896e-06
1.08845e-06
1.08661e-06
1.08661e-06
1.08661e-06
1.08661e-06
1.08661e-06
1.08661e-06
1.08661e-06
1.08661e-06
1.08661e-06
1.0887e-06
1.0896e-06
1.0894e-06
1.08826e-06
1.08661e-06
1.08661e-06
1.08661e-06
1.08661e-06
1.08661e-06
1.08661e-06
1.08661e-06
1.08845e-06
1.08873e-06
1.08961e-06
1.08946e-06
1.08861e-06
1.08823e-06
1.08661e-06
1.08661e-06
1.08661e-06
1.08661e-06
1.08661e-06
1.08842e-06
1.08864e-06
1.08879e-06
1.08943e-06
1.08861e-06
1.08826e-06
1.08661e-06
1.08661e-06
1.08661e-06
1.08845e-06
1.08864e-06
1.08877e-06
1.0896e-06
1.08943e-06
1.08869e-06
1.08871e-06
1.08869e-06
1.0887e-06
1.08873e-06
1.08879e-06
1.0896e-06
1.08949e-06
1.0896e-06
1.0896e-06
1.0896e-06
1.08961e-06
1.07905e-06
1.07809e-06
1.07802e-06
1.07807e-06
1.07901e-06
1.07908e-06
1.07909e-06
1.07823e-06
1.07773e-06
1.07623e-06
1.07623e-06
1.07623e-06
1.07787e-06
1.07823e-06
1.07905e-06
1.07823e-06
1.0777e-06
1.07623e-06
1.07623e-06
1.07623e-06
1.07623e-06
1.07623e-06
1.07785e-06
1.07823e-06
1.07905e-06
1.07905e-06
1.07773e-06
1.07623e-06
1.07623e-06
1.07623e-06
1.07623e-06
1.07623e-06
1.07623e-06
1.07623e-06
1.07787e-06
1.07831e-06
1.0791e-06
1.07809e-06
1.07623e-06
1.07623e-06
1.07623e-06
1.07623e-06
1.07623e-06
1.07623e-06
1.07623e-06
1.07623e-06
1.07623e-06
1.07833e-06
1.07922e-06
1.07802e-06
1.07623e-06
1.07623e-06
1.07623e-06
1.07623e-06
1.07623e-06
1.07623e-06
1.07623e-06
1.07623e-06
1.07623e-06
1.07831e-06
1.07922e-06
1.07807e-06
1.07623e-06
1.07623e-06
1.07623e-06
1.07623e-06
1.07623e-06
1.07623e-06
1.07623e-06
1.07623e-06
1.07623e-06
1.07832e-06
1.07922e-06
1.07901e-06
1.07787e-06
1.07623e-06
1.07623e-06
1.07623e-06
1.07623e-06
1.07623e-06
1.07623e-06
1.07623e-06
1.07807e-06
1.07834e-06
1.07923e-06
1.07908e-06
1.07823e-06
1.07785e-06
1.07623e-06
1.07623e-06
1.07623e-06
1.07623e-06
1.07623e-06
1.07804e-06
1.07825e-06
1.07841e-06
1.07905e-06
1.07823e-06
1.07787e-06
1.07623e-06
1.07623e-06
1.07623e-06
1.07807e-06
1.07825e-06
1.07838e-06
1.07921e-06
1.07905e-06
1.07831e-06
1.07833e-06
1.07831e-06
1.07832e-06
1.07834e-06
1.07841e-06
1.07921e-06
1.0791e-06
1.07922e-06
1.07922e-06
1.07922e-06
1.07923e-06
1.06866e-06
1.06771e-06
1.06764e-06
1.06769e-06
1.06863e-06
1.0687e-06
1.0687e-06
1.06785e-06
1.06735e-06
1.06585e-06
1.06585e-06
1.06585e-06
1.06749e-06
1.06785e-06
1.06866e-06
1.06785e-06
1.06731e-06
1.06585e-06
1.06585e-06
1.06585e-06
1.06585e-06
1.06585e-06
1.06747e-06
1.06784e-06
1.06867e-06
1.06866e-06
1.06735e-06
1.06585e-06
1.06585e-06
1.06585e-06
1.06585e-06
1.06585e-06
1.06585e-06
1.06585e-06
1.06749e-06
1.06793e-06
1.06872e-06
1.06771e-06
1.06585e-06
1.06585e-06
1.06585e-06
1.06585e-06
1.06585e-06
1.06585e-06
1.06585e-06
1.06585e-06
1.06585e-06
1.06795e-06
1.06884e-06
1.06764e-06
1.06585e-06
1.06585e-06
1.06585e-06
1.06585e-06
1.06585e-06
1.06585e-06
1.06585e-06
1.06585e-06
1.06585e-06
1.06793e-06
1.06883e-06
1.06769e-06
1.06585e-06
1.06585e-06
1.06585e-06
1.06585e-06
1.06585e-06
1.06585e-06
1.06585e-06
1.06585e-06
1.06585e-06
1.06793e-06
1.06884e-06
1.06863e-06
1.06749e-06
1.06585e-06
1.06585e-06
1.06585e-06
1.06585e-06
1.06585e-06
1.06585e-06
1.06585e-06
1.06769e-06
1.06796e-06
1.06884e-06
1.0687e-06
1.06785e-06
1.06747e-06
1.06585e-06
1.06585e-06
1.06585e-06
1.06585e-06
1.06585e-06
1.06765e-06
1.06787e-06
1.06803e-06
1.06866e-06
1.06784e-06
1.06749e-06
1.06585e-06
1.06585e-06
1.06585e-06
1.06769e-06
1.06787e-06
1.068e-06
1.06883e-06
1.06867e-06
1.06793e-06
1.06795e-06
1.06793e-06
1.06793e-06
1.06796e-06
1.06803e-06
1.06883e-06
1.06872e-06
1.06884e-06
1.06883e-06
1.06884e-06
1.06884e-06
1.05828e-06
1.05733e-06
1.05726e-06
1.0573e-06
1.05825e-06
1.05831e-06
1.05832e-06
1.05746e-06
1.05696e-06
1.05546e-06
1.05546e-06
1.05546e-06
1.05711e-06
1.05746e-06
1.05828e-06
1.05746e-06
1.05693e-06
1.05546e-06
1.05546e-06
1.05546e-06
1.05546e-06
1.05546e-06
1.05708e-06
1.05746e-06
1.05828e-06
1.05828e-06
1.05696e-06
1.05546e-06
1.05546e-06
1.05546e-06
1.05546e-06
1.05546e-06
1.05546e-06
1.05546e-06
1.05711e-06
1.05754e-06
1.05834e-06
1.05733e-06
1.05546e-06
1.05546e-06
1.05546e-06
1.05546e-06
1.05546e-06
1.05546e-06
1.05546e-06
1.05546e-06
1.05546e-06
1.05756e-06
1.05845e-06
1.05726e-06
1.05546e-06
1.05546e-06
1.05546e-06
1.05546e-06
1.05546e-06
1.05546e-06
1.05546e-06
1.05546e-06
1.05546e-06
1.05754e-06
1.05845e-06
1.05731e-06
1.05546e-06
1.05546e-06
1.05546e-06
1.05546e-06
1.05546e-06
1.05546e-06
1.05546e-06
1.05546e-06
1.05546e-06
1.05755e-06
1.05845e-06
1.05825e-06
1.05711e-06
1.05546e-06
1.05546e-06
1.05546e-06
1.05546e-06
1.05546e-06
1.05546e-06
1.05546e-06
1.0573e-06
1.05758e-06
1.05846e-06
1.05831e-06
1.05746e-06
1.05708e-06
1.05546e-06
1.05546e-06
1.05546e-06
1.05546e-06
1.05546e-06
1.05727e-06
1.05749e-06
1.05764e-06
1.05828e-06
1.05746e-06
1.05711e-06
1.05546e-06
1.05546e-06
1.05546e-06
1.0573e-06
1.05749e-06
1.05762e-06
1.05845e-06
1.05828e-06
1.05754e-06
1.05756e-06
1.05754e-06
1.05755e-06
1.05758e-06
1.05764e-06
1.05845e-06
1.05834e-06
1.05845e-06
1.05845e-06
1.05845e-06
1.05846e-06
1.0479e-06
1.04694e-06
1.04687e-06
1.04692e-06
1.04786e-06
1.04793e-06
1.04794e-06
1.04708e-06
1.04658e-06
1.04508e-06
1.04508e-06
1.04508e-06
1.04672e-06
1.04708e-06
1.0479e-06
1.04708e-06
1.04655e-06
1.04508e-06
1.04508e-06
1.04508e-06
1.04508e-06
1.04508e-06
1.0467e-06
1.04708e-06
1.0479e-06
1.0479e-06
1.04658e-06
1.04508e-06
1.04508e-06
1.04508e-06
1.04508e-06
1.04508e-06
1.04508e-06
1.04508e-06
1.04672e-06
1.04716e-06
1.04795e-06
1.04694e-06
1.04508e-06
1.04508e-06
1.04508e-06
1.04508e-06
1.04508e-06
1.04508e-06
1.04508e-06
1.04508e-06
1.04508e-06
1.04718e-06
1.04807e-06
1.04687e-06
1.04508e-06
1.04508e-06
1.04508e-06
1.04508e-06
1.04508e-06
1.04508e-06
1.04508e-06
1.04508e-06
1.04508e-06
1.04716e-06
1.04807e-06
1.04692e-06
1.04508e-06
1.04508e-06
1.04508e-06
1.04508e-06
1.04508e-06
1.04508e-06
1.04508e-06
1.04508e-06
1.04508e-06
1.04717e-06
1.04807e-06
1.04786e-06
1.04672e-06
1.04508e-06
1.04508e-06
1.04508e-06
1.04508e-06
1.04508e-06
1.04508e-06
1.04508e-06
1.04692e-06
1.04719e-06
1.04808e-06
1.04793e-06
1.04708e-06
1.0467e-06
1.04508e-06
1.04508e-06
1.04508e-06
1.04508e-06
1.04508e-06
1.04689e-06
1.0471e-06
1.04726e-06
1.0479e-06
1.04708e-06
1.04672e-06
1.04508e-06
1.04508e-06
1.04508e-06
1.04692e-06
1.0471e-06
1.04723e-06
1.04806e-06
1.0479e-06
1.04716e-06
1.04718e-06
1.04716e-06
1.04717e-06
1.04719e-06
1.04726e-06
1.04806e-06
1.04795e-06
1.04807e-06
1.04807e-06
1.04807e-06
1.04808e-06
1.03751e-06
1.03656e-06
1.03649e-06
1.03654e-06
1.03748e-06
1.03755e-06
1.03755e-06
1.0367e-06
1.0362e-06
1.0347e-06
1.0347e-06
1.0347e-06
1.03634e-06
1.0367e-06
1.03751e-06
1.0367e-06
1.03616e-06
1.0347e-06
1.0347e-06
1.0347e-06
1.0347e-06
1.0347e-06
1.03632e-06
1.03669e-06
1.03752e-06
1.03751e-06
1.0362e-06
1.0347e-06
1.0347e-06
1.0347e-06
1.0347e-06
1.0347e-06
1.0347e-06
1.0347e-06
1.03634e-06
1.03678e-06
1.03757e-06
1.03656e-06
1.0347e-06
1.0347e-06
1.0347e-06
1.0347e-06
1.0347e-06
1.0347e-06
1.0347e-06
1.0347e-06
1.0347e-06
1.0368e-06
1.03769e-06
1.03649e-06
1.0347e-06
1.0347e-06
1.0347e-06
1.0347e-06
1.0347e-06
1.0347e-06
1.0347e-06
1.0347e-06
1.0347e-06
1.03678e-06
1.03769e-06
1.03654e-06
1.0347e-06
1.0347e-06
1.0347e-06
1.0347e-06
1.0347e-06
1.0347e-06
1.0347e-06
1.0347e-06
1.0347e-06
1.03678e-06
1.03769e-06
1.03748e-06
1.03634e-06
1.0347e-06
1.0347e-06
1.0347e-06
1.0347e-06
1.0347e-06
1.0347e-06
1.0347e-06
1.03654e-06
1.03681e-06
1.03769e-06
1.03755e-06
1.0367e-06
1.03632e-06
1.0347e-06
1.0347e-06
1.0347e-06
1.0347e-06
1.0347e-06
1.0365e-06
1.03672e-06
1.03688e-06
1.03751e-06
1.03669e-06
1.03634e-06
1.0347e-06
1.0347e-06
1.0347e-06
1.03654e-06
1.03672e-06
1.03685e-06
1.03768e-06
1.03752e-06
1.03678e-06
1.0368e-06
1.03678e-06
1.03678e-06
1.03681e-06
1.03688e-06
1.03768e-06
1.03757e-06
1.03769e-06
1.03769e-06
1.03769e-06
1.03769e-06
1.02713e-06
1.02618e-06
1.02611e-06
1.02616e-06
1.0271e-06
1.02716e-06
1.02717e-06
1.02631e-06
1.02581e-06
1.02431e-06
1.02431e-06
1.02431e-06
1.02596e-06
1.02631e-06
1.02713e-06
1.02631e-06
1.02578e-06
1.02431e-06
1.02431e-06
1.02431e-06
1.02431e-06
1.02431e-06
1.02593e-06
1.02631e-06
1.02713e-06
1.02713e-06
1.02581e-06
1.02431e-06
1.02431e-06
1.02431e-06
1.02431e-06
1.02431e-06
1.02431e-06
1.02431e-06
1.02596e-06
1.02639e-06
1.02719e-06
1.02618e-06
1.02431e-06
1.02431e-06
1.02431e-06
1.02431e-06
1.02431e-06
1.02431e-06
1.02431e-06
1.02431e-06
1.02431e-06
1.02641e-06
1.0273e-06
1.02611e-06
1.02431e-06
1.02431e-06
1.02431e-06
1.02431e-06
1.02431e-06
1.02431e-06
1.02431e-06
1.02431e-06
1.02431e-06
1.02639e-06
1.0273e-06
1.02616e-06
1.02431e-06
1.02431e-06
1.02431e-06
1.02431e-06
1.02431e-06
1.02431e-06
1.02431e-06
1.02431e-06
1.02431e-06
1.0264e-06
1.0273e-06
1.0271e-06
1.02596e-06
1.02431e-06
1.02431e-06
1.02431e-06
1.02431e-06
1.02431e-06
1.02431e-06
1.02431e-06