/*--------------------------------*- C++ -*----------------------------------*\
| =========                 |                                                 |
| \\      /  F ield         | OpenFOAM: The Open Source CFD Toolbox           |
|  \\    /   O peration     | Version:  v2012                                 |
|   \\  /    A nd           | Website:  www.openfoam.com                      |
|    \\/     M anipulation  |                                                 |
\*---------------------------------------------------------------------------*/
FoamFile
{
    version     2.0;
    format      ascii;
    class       volScalarField;
    location    "41";
    object      p;
}
// * * * * * * * * * * * * * * * * * * * * * * * * * * * * * * * * * * * * * //

dimensions      [0 2 -2 0 0 0 0];


internalField   nonuniform List<scalar> 
292667
(
1.28335e-06
1.27353e-06
1.27272e-06
1.27279e-06
1.27392e-06
1.28428e-06
1.27374e-06
1.27087e-06
1.26921e-06
1.26852e-06
1.26861e-06
1.2695e-06
1.27143e-06
1.27457e-06
1.27374e-06
1.27003e-06
1.26773e-06
1.26647e-06
1.26594e-06
1.26601e-06
1.2667e-06
1.26817e-06
1.27077e-06
1.27482e-06
1.28335e-06
1.27087e-06
1.26773e-06
1.26588e-06
1.26484e-06
1.2644e-06
1.26446e-06
1.26503e-06
1.26624e-06
1.26835e-06
1.27188e-06
1.28312e-06
1.27353e-06
1.26921e-06
1.26647e-06
1.26484e-06
1.26392e-06
1.26352e-06
1.26357e-06
1.26409e-06
1.26517e-06
1.26702e-06
1.27013e-06
1.27744e-06
1.27272e-06
1.26852e-06
1.26594e-06
1.2644e-06
1.26352e-06
1.26313e-06
1.26319e-06
1.26368e-06
1.26471e-06
1.26647e-06
1.26941e-06
1.27565e-06
1.27279e-06
1.26861e-06
1.26601e-06
1.26446e-06
1.26357e-06
1.26319e-06
1.26324e-06
1.26374e-06
1.26477e-06
1.26654e-06
1.26951e-06
1.27599e-06
1.27392e-06
1.2695e-06
1.2667e-06
1.26503e-06
1.26409e-06
1.26368e-06
1.26374e-06
1.26427e-06
1.26537e-06
1.26728e-06
1.27047e-06
1.27777e-06
1.28428e-06
1.27143e-06
1.26817e-06
1.26624e-06
1.26517e-06
1.26471e-06
1.26477e-06
1.26537e-06
1.26663e-06
1.26884e-06
1.2725e-06
1.28307e-06
1.27457e-06
1.27077e-06
1.26835e-06
1.26702e-06
1.26647e-06
1.26654e-06
1.26728e-06
1.26884e-06
1.27159e-06
1.27836e-06
1.27482e-06
1.27188e-06
1.27013e-06
1.26941e-06
1.26951e-06
1.27047e-06
1.27249e-06
1.27836e-06
1.28312e-06
1.27744e-06
1.27565e-06
1.27598e-06
1.27777e-06
1.28307e-06
1.25524e-06
1.25425e-06
1.25422e-06
1.25426e-06
1.25518e-06
1.2551e-06
1.25531e-06
1.25452e-06
1.25411e-06
1.25256e-06
1.25254e-06
1.25256e-06
1.25426e-06
1.25454e-06
1.2553e-06
1.25452e-06
1.25412e-06
1.25261e-06
1.25254e-06
1.25259e-06
1.25254e-06
1.25261e-06
1.25424e-06
1.25451e-06
1.25527e-06
1.25524e-06
1.25411e-06
1.25261e-06
1.25254e-06
1.25258e-06
1.25257e-06
1.25258e-06
1.25254e-06
1.25261e-06
1.25422e-06
1.25453e-06
1.25535e-06
1.25425e-06
1.25256e-06
1.25254e-06
1.25258e-06
1.25255e-06
1.25255e-06
1.25255e-06
1.25258e-06
1.25254e-06
1.25256e-06
1.25465e-06
1.25545e-06
1.25422e-06
1.25254e-06
1.25259e-06
1.25257e-06
1.25255e-06
1.25254e-06
1.25255e-06
1.25257e-06
1.25259e-06
1.25254e-06
1.25465e-06
1.25532e-06
1.25426e-06
1.25256e-06
1.25254e-06
1.25258e-06
1.25255e-06
1.25255e-06
1.25255e-06
1.25258e-06
1.25254e-06
1.25256e-06
1.25466e-06
1.25536e-06
1.25518e-06
1.25426e-06
1.25261e-06
1.25254e-06
1.25258e-06
1.25257e-06
1.25258e-06
1.25254e-06
1.25261e-06
1.25437e-06
1.25457e-06
1.25542e-06
1.2551e-06
1.25454e-06
1.25424e-06
1.25261e-06
1.25254e-06
1.25259e-06
1.25254e-06
1.25261e-06
1.25434e-06
1.25453e-06
1.25457e-06
1.2553e-06
1.25451e-06
1.25422e-06
1.25256e-06
1.25254e-06
1.25256e-06
1.25437e-06
1.25453e-06
1.25464e-06
1.25542e-06
1.25527e-06
1.25453e-06
1.25465e-06
1.25465e-06
1.25466e-06
1.25457e-06
1.25457e-06
1.25541e-06
1.25535e-06
1.25545e-06
1.25532e-06
1.25536e-06
1.25542e-06
1.24455e-06
1.24358e-06
1.24351e-06
1.24356e-06
1.24451e-06
1.24458e-06
1.24459e-06
1.24373e-06
1.24326e-06
1.24174e-06
1.24173e-06
1.24174e-06
1.24341e-06
1.24375e-06
1.24455e-06
1.24373e-06
1.24325e-06
1.24179e-06
1.24179e-06
1.24183e-06
1.24179e-06
1.24179e-06
1.24341e-06
1.24374e-06
1.24455e-06
1.24455e-06
1.24326e-06
1.24179e-06
1.2418e-06
1.24186e-06
1.24186e-06
1.24186e-06
1.2418e-06
1.24179e-06
1.24341e-06
1.2438e-06
1.24461e-06
1.24358e-06
1.24174e-06
1.24179e-06
1.24186e-06
1.24187e-06
1.24189e-06
1.24187e-06
1.24186e-06
1.24179e-06
1.24174e-06
1.24383e-06
1.24472e-06
1.24351e-06
1.24173e-06
1.24183e-06
1.24186e-06
1.24189e-06
1.2419e-06
1.24189e-06
1.24186e-06
1.24183e-06
1.24173e-06
1.24382e-06
1.24472e-06
1.24356e-06
1.24174e-06
1.24179e-06
1.24186e-06
1.24187e-06
1.24189e-06
1.24187e-06
1.24186e-06
1.24179e-06
1.24174e-06
1.24382e-06
1.24472e-06
1.24451e-06
1.24341e-06
1.24179e-06
1.2418e-06
1.24186e-06
1.24186e-06
1.24186e-06
1.2418e-06
1.24179e-06
1.24359e-06
1.24382e-06
1.24473e-06
1.24458e-06
1.24375e-06
1.24341e-06
1.24179e-06
1.24179e-06
1.24183e-06
1.24179e-06
1.24179e-06
1.24356e-06
1.24375e-06
1.24387e-06
1.24455e-06
1.24374e-06
1.24341e-06
1.24174e-06
1.24173e-06
1.24174e-06
1.24359e-06
1.24375e-06
1.24386e-06
1.24471e-06
1.24455e-06
1.2438e-06
1.24383e-06
1.24382e-06
1.24382e-06
1.24382e-06
1.24387e-06
1.24471e-06
1.24461e-06
1.24472e-06
1.24472e-06
1.24472e-06
1.24473e-06
1.23392e-06
1.23293e-06
1.23286e-06
1.23291e-06
1.23388e-06
1.23395e-06
1.23396e-06
1.23307e-06
1.23258e-06
1.23104e-06
1.23104e-06
1.23104e-06
1.23272e-06
1.23308e-06
1.23391e-06
1.23307e-06
1.23256e-06
1.23107e-06
1.23108e-06
1.2311e-06
1.23108e-06
1.23107e-06
1.23271e-06
1.23307e-06
1.23391e-06
1.23392e-06
1.23258e-06
1.23107e-06
1.23109e-06
1.23113e-06
1.23113e-06
1.23113e-06
1.23109e-06
1.23107e-06
1.23273e-06
1.23315e-06
1.23398e-06
1.23293e-06
1.23104e-06
1.23108e-06
1.23113e-06
1.23115e-06
1.23117e-06
1.23115e-06
1.23113e-06
1.23108e-06
1.23104e-06
1.23317e-06
1.23409e-06
1.23286e-06
1.23104e-06
1.2311e-06
1.23113e-06
1.23117e-06
1.23117e-06
1.23117e-06
1.23113e-06
1.2311e-06
1.23104e-06
1.23315e-06
1.23408e-06
1.23291e-06
1.23104e-06
1.23108e-06
1.23113e-06
1.23115e-06
1.23117e-06
1.23115e-06
1.23113e-06
1.23108e-06
1.23104e-06
1.23316e-06
1.23408e-06
1.23388e-06
1.23272e-06
1.23107e-06
1.23109e-06
1.23113e-06
1.23113e-06
1.23113e-06
1.23109e-06
1.23107e-06
1.23291e-06
1.23318e-06
1.23409e-06
1.23395e-06
1.23308e-06
1.23271e-06
1.23107e-06
1.23108e-06
1.2311e-06
1.23108e-06
1.23107e-06
1.23289e-06
1.23309e-06
1.23324e-06
1.23391e-06
1.23307e-06
1.23273e-06
1.23104e-06
1.23104e-06
1.23104e-06
1.23291e-06
1.23309e-06
1.23322e-06
1.23408e-06
1.23391e-06
1.23315e-06
1.23317e-06
1.23315e-06
1.23316e-06
1.23318e-06
1.23324e-06
1.23408e-06
1.23398e-06
1.23409e-06
1.23408e-06
1.23408e-06
1.23409e-06
1.22328e-06
1.22229e-06
1.22222e-06
1.22227e-06
1.22324e-06
1.22331e-06
1.22332e-06
1.22243e-06
1.22193e-06
1.22038e-06
1.22038e-06
1.22038e-06
1.22207e-06
1.22243e-06
1.22327e-06
1.22243e-06
1.2219e-06
1.22039e-06
1.2204e-06
1.22041e-06
1.2204e-06
1.22039e-06
1.22205e-06
1.22243e-06
1.22328e-06
1.22328e-06
1.22193e-06
1.22039e-06
1.22041e-06
1.22043e-06
1.22043e-06
1.22043e-06
1.22041e-06
1.22039e-06
1.22207e-06
1.22251e-06
1.22334e-06
1.22229e-06
1.22038e-06
1.2204e-06
1.22043e-06
1.22045e-06
1.22046e-06
1.22045e-06
1.22043e-06
1.2204e-06
1.22038e-06
1.22252e-06
1.22345e-06
1.22222e-06
1.22038e-06
1.22041e-06
1.22043e-06
1.22046e-06
1.22046e-06
1.22046e-06
1.22043e-06
1.22041e-06
1.22038e-06
1.2225e-06
1.22344e-06
1.22227e-06
1.22038e-06
1.2204e-06
1.22043e-06
1.22045e-06
1.22046e-06
1.22045e-06
1.22043e-06
1.2204e-06
1.22038e-06
1.22251e-06
1.22344e-06
1.22324e-06
1.22207e-06
1.22039e-06
1.22041e-06
1.22043e-06
1.22043e-06
1.22043e-06
1.22041e-06
1.22039e-06
1.22226e-06
1.22253e-06
1.22345e-06
1.22331e-06
1.22243e-06
1.22205e-06
1.22039e-06
1.2204e-06
1.22041e-06
1.2204e-06
1.22039e-06
1.22223e-06
1.22245e-06
1.2226e-06
1.22327e-06
1.22243e-06
1.22207e-06
1.22038e-06
1.22038e-06
1.22038e-06
1.22226e-06
1.22245e-06
1.22258e-06
1.22344e-06
1.22328e-06
1.22251e-06
1.22252e-06
1.2225e-06
1.22251e-06
1.22253e-06
1.2226e-06
1.22344e-06
1.22334e-06
1.22345e-06
1.22344e-06
1.22344e-06
1.22345e-06
1.21264e-06
1.21165e-06
1.21157e-06
1.21162e-06
1.2126e-06
1.21267e-06
1.21268e-06
1.21179e-06
1.21128e-06
1.20973e-06
1.20973e-06
1.20973e-06
1.21142e-06
1.21178e-06
1.21263e-06
1.21179e-06
1.21125e-06
1.20973e-06
1.20974e-06
1.20974e-06
1.20974e-06
1.20973e-06
1.2114e-06
1.21178e-06
1.21264e-06
1.21264e-06
1.21128e-06
1.20973e-06
1.20974e-06
1.20976e-06
1.20976e-06
1.20976e-06
1.20974e-06
1.20973e-06
1.21142e-06
1.21186e-06
1.2127e-06
1.21165e-06
1.20973e-06
1.20974e-06
1.20976e-06
1.20977e-06
1.20977e-06
1.20977e-06
1.20976e-06
1.20974e-06
1.20973e-06
1.21188e-06
1.21281e-06
1.21157e-06
1.20973e-06
1.20974e-06
1.20976e-06
1.20977e-06
1.20977e-06
1.20977e-06
1.20976e-06
1.20974e-06
1.20973e-06
1.21186e-06
1.2128e-06
1.21162e-06
1.20973e-06
1.20974e-06
1.20976e-06
1.20977e-06
1.20977e-06
1.20977e-06
1.20976e-06
1.20974e-06
1.20973e-06
1.21187e-06
1.2128e-06
1.2126e-06
1.21142e-06
1.20973e-06
1.20974e-06
1.20976e-06
1.20976e-06
1.20976e-06
1.20974e-06
1.20973e-06
1.21161e-06
1.21189e-06
1.21281e-06
1.21267e-06
1.21178e-06
1.2114e-06
1.20973e-06
1.20974e-06
1.20974e-06
1.20974e-06
1.20973e-06
1.21158e-06
1.2118e-06
1.21196e-06
1.21263e-06
1.21178e-06
1.21142e-06
1.20973e-06
1.20973e-06
1.20973e-06
1.21161e-06
1.2118e-06
1.21194e-06
1.2128e-06
1.21264e-06
1.21186e-06
1.21188e-06
1.21186e-06
1.21187e-06
1.21189e-06
1.21196e-06
1.2128e-06
1.2127e-06
1.21281e-06
1.2128e-06
1.2128e-06
1.21281e-06
1.202e-06
1.201e-06
1.20093e-06
1.20098e-06
1.20195e-06
1.20203e-06
1.20204e-06
1.20114e-06
1.20064e-06
1.19908e-06
1.19908e-06
1.19908e-06
1.20078e-06
1.20114e-06
1.20199e-06
1.20114e-06
1.2006e-06
1.19908e-06
1.19909e-06
1.19909e-06
1.19909e-06
1.19908e-06
1.20075e-06
1.20114e-06
1.20199e-06
1.202e-06
1.20064e-06
1.19908e-06
1.19909e-06
1.19909e-06
1.1991e-06
1.19909e-06
1.19909e-06
1.19908e-06
1.20078e-06
1.20122e-06
1.20205e-06
1.201e-06
1.19908e-06
1.19909e-06
1.19909e-06
1.1991e-06
1.1991e-06
1.1991e-06
1.19909e-06
1.19909e-06
1.19908e-06
1.20123e-06
1.20216e-06
1.20093e-06
1.19908e-06
1.19909e-06
1.1991e-06
1.1991e-06
1.19911e-06
1.1991e-06
1.1991e-06
1.19909e-06
1.19908e-06
1.20121e-06
1.20216e-06
1.20098e-06
1.19908e-06
1.19909e-06
1.19909e-06
1.1991e-06
1.1991e-06
1.1991e-06
1.19909e-06
1.19909e-06
1.19908e-06
1.20122e-06
1.20216e-06
1.20195e-06
1.20078e-06
1.19908e-06
1.19909e-06
1.19909e-06
1.1991e-06
1.19909e-06
1.19909e-06
1.19908e-06
1.20097e-06
1.20125e-06
1.20217e-06
1.20203e-06
1.20114e-06
1.20075e-06
1.19908e-06
1.19909e-06
1.19909e-06
1.19909e-06
1.19908e-06
1.20093e-06
1.20116e-06
1.20132e-06
1.20199e-06
1.20114e-06
1.20078e-06
1.19908e-06
1.19908e-06
1.19908e-06
1.20097e-06
1.20116e-06
1.20129e-06
1.20216e-06
1.20199e-06
1.20122e-06
1.20123e-06
1.20121e-06
1.20122e-06
1.20125e-06
1.20132e-06
1.20216e-06
1.20205e-06
1.20216e-06
1.20216e-06
1.20216e-06
1.20217e-06
1.19135e-06
1.19036e-06
1.19029e-06
1.19034e-06
1.19131e-06
1.19138e-06
1.19139e-06
1.1905e-06
1.18999e-06
1.18843e-06
1.18843e-06
1.18843e-06
1.19013e-06
1.1905e-06
1.19135e-06
1.1905e-06
1.18996e-06
1.18843e-06
1.18844e-06
1.18844e-06
1.18844e-06
1.18843e-06
1.19011e-06
1.19049e-06
1.19135e-06
1.19135e-06
1.18999e-06
1.18843e-06
1.18844e-06
1.18844e-06
1.18844e-06
1.18844e-06
1.18844e-06
1.18843e-06
1.19013e-06
1.19058e-06
1.19141e-06
1.19036e-06
1.18843e-06
1.18844e-06
1.18844e-06
1.18845e-06
1.18845e-06
1.18845e-06
1.18844e-06
1.18844e-06
1.18843e-06
1.19059e-06
1.19152e-06
1.19029e-06
1.18843e-06
1.18844e-06
1.18844e-06
1.18845e-06
1.18845e-06
1.18845e-06
1.18844e-06
1.18844e-06
1.18843e-06
1.19057e-06
1.19151e-06
1.19034e-06
1.18843e-06
1.18844e-06
1.18844e-06
1.18845e-06
1.18845e-06
1.18845e-06
1.18844e-06
1.18844e-06
1.18843e-06
1.19058e-06
1.19152e-06
1.19131e-06
1.19013e-06
1.18843e-06
1.18844e-06
1.18844e-06
1.18844e-06
1.18844e-06
1.18844e-06
1.18843e-06
1.19032e-06
1.19061e-06
1.19153e-06
1.19138e-06
1.1905e-06
1.19011e-06
1.18843e-06
1.18844e-06
1.18844e-06
1.18844e-06
1.18843e-06
1.19029e-06
1.19052e-06
1.19068e-06
1.19135e-06
1.19049e-06
1.19013e-06
1.18843e-06
1.18843e-06
1.18843e-06
1.19032e-06
1.19052e-06
1.19065e-06
1.19152e-06
1.19135e-06
1.19058e-06
1.19059e-06
1.19057e-06
1.19058e-06
1.19061e-06
1.19068e-06
1.19152e-06
1.19141e-06
1.19152e-06
1.19151e-06
1.19152e-06
1.19153e-06
1.18071e-06
1.17972e-06
1.17964e-06
1.17969e-06
1.18067e-06
1.18074e-06
1.18075e-06
1.17986e-06
1.17935e-06
1.17779e-06
1.17779e-06
1.17779e-06
1.17949e-06
1.17985e-06
1.1807e-06
1.17986e-06
1.17931e-06
1.17779e-06
1.17779e-06
1.17779e-06
1.17779e-06
1.17779e-06
1.17946e-06
1.17985e-06
1.18071e-06
1.18071e-06
1.17935e-06
1.17779e-06
1.17779e-06
1.17779e-06
1.17779e-06
1.17779e-06
1.17779e-06
1.17779e-06
1.17949e-06
1.17993e-06
1.18077e-06
1.17972e-06
1.17779e-06
1.17779e-06
1.17779e-06
1.17779e-06
1.1778e-06
1.17779e-06
1.17779e-06
1.17779e-06
1.17779e-06
1.17995e-06
1.18088e-06
1.17964e-06
1.17779e-06
1.17779e-06
1.17779e-06
1.1778e-06
1.1778e-06
1.1778e-06
1.17779e-06
1.17779e-06
1.17779e-06
1.17992e-06
1.18087e-06
1.17969e-06
1.17779e-06
1.17779e-06
1.17779e-06
1.17779e-06
1.1778e-06
1.17779e-06
1.17779e-06
1.17779e-06
1.17779e-06
1.17993e-06
1.18087e-06
1.18067e-06
1.17949e-06
1.17779e-06
1.17779e-06
1.17779e-06
1.17779e-06
1.17779e-06
1.17779e-06
1.17779e-06
1.17968e-06
1.17996e-06
1.18088e-06
1.18074e-06
1.17985e-06
1.17946e-06
1.17779e-06
1.17779e-06
1.17779e-06
1.17779e-06
1.17779e-06
1.17965e-06
1.17987e-06
1.18003e-06
1.1807e-06
1.17985e-06
1.17949e-06
1.17779e-06
1.17779e-06
1.17779e-06
1.17968e-06
1.17987e-06
1.18001e-06
1.18087e-06
1.18071e-06
1.17993e-06
1.17995e-06
1.17992e-06
1.17993e-06
1.17996e-06
1.18003e-06
1.18087e-06
1.18077e-06
1.18088e-06
1.18087e-06
1.18087e-06
1.18088e-06
1.17007e-06
1.16907e-06
1.169e-06
1.16905e-06
1.17002e-06
1.1701e-06
1.17011e-06
1.16921e-06
1.1687e-06
1.16714e-06
1.16714e-06
1.16714e-06
1.16885e-06
1.16921e-06
1.17006e-06
1.16921e-06
1.16867e-06
1.16714e-06
1.16715e-06
1.16715e-06
1.16715e-06
1.16714e-06
1.16882e-06
1.16921e-06
1.17006e-06
1.17007e-06
1.1687e-06
1.16714e-06
1.16715e-06
1.16715e-06
1.16715e-06
1.16715e-06
1.16715e-06
1.16714e-06
1.16884e-06
1.16929e-06
1.17012e-06
1.16907e-06
1.16714e-06
1.16715e-06
1.16715e-06
1.16715e-06
1.16715e-06
1.16715e-06
1.16715e-06
1.16715e-06
1.16714e-06
1.1693e-06
1.17023e-06
1.169e-06
1.16714e-06
1.16715e-06
1.16715e-06
1.16715e-06
1.16715e-06
1.16715e-06
1.16715e-06
1.16715e-06
1.16714e-06
1.16928e-06
1.17023e-06
1.16905e-06
1.16714e-06
1.16715e-06
1.16715e-06
1.16715e-06
1.16715e-06
1.16715e-06
1.16715e-06
1.16715e-06
1.16714e-06
1.16929e-06
1.17023e-06
1.17002e-06
1.16885e-06
1.16714e-06
1.16715e-06
1.16715e-06
1.16715e-06
1.16715e-06
1.16715e-06
1.16714e-06
1.16904e-06
1.16932e-06
1.17024e-06
1.1701e-06
1.16921e-06
1.16882e-06
1.16714e-06
1.16715e-06
1.16715e-06
1.16715e-06
1.16714e-06
1.169e-06
1.16923e-06
1.16939e-06
1.17006e-06
1.16921e-06
1.16884e-06
1.16714e-06
1.16714e-06
1.16714e-06
1.16904e-06
1.16923e-06
1.16936e-06
1.17023e-06
1.17006e-06
1.16929e-06
1.1693e-06
1.16928e-06
1.16929e-06
1.16932e-06
1.16939e-06
1.17023e-06
1.17012e-06
1.17023e-06
1.17023e-06
1.17023e-06
1.17024e-06
1.15942e-06
1.15843e-06
1.15836e-06
1.1584e-06
1.15938e-06
1.15945e-06
1.15946e-06
1.15857e-06
1.15806e-06
1.1565e-06
1.1565e-06
1.1565e-06
1.1582e-06
1.15856e-06
1.15942e-06
1.15857e-06
1.15803e-06
1.1565e-06
1.1565e-06
1.1565e-06
1.1565e-06
1.1565e-06
1.15818e-06
1.15856e-06
1.15942e-06
1.15942e-06
1.15806e-06
1.1565e-06
1.1565e-06
1.1565e-06
1.1565e-06
1.1565e-06
1.1565e-06
1.1565e-06
1.1582e-06
1.15865e-06
1.15948e-06
1.15843e-06
1.1565e-06
1.1565e-06
1.1565e-06
1.1565e-06
1.1565e-06
1.1565e-06
1.1565e-06
1.1565e-06
1.1565e-06
1.15866e-06
1.15959e-06
1.15836e-06
1.1565e-06
1.1565e-06
1.1565e-06
1.1565e-06
1.1565e-06
1.1565e-06
1.1565e-06
1.1565e-06
1.1565e-06
1.15864e-06
1.15958e-06
1.1584e-06
1.1565e-06
1.1565e-06
1.1565e-06
1.1565e-06
1.1565e-06
1.1565e-06
1.1565e-06
1.1565e-06
1.1565e-06
1.15865e-06
1.15958e-06
1.15938e-06
1.1582e-06
1.1565e-06
1.1565e-06
1.1565e-06
1.1565e-06
1.1565e-06
1.1565e-06
1.1565e-06
1.15839e-06
1.15868e-06
1.1596e-06
1.15945e-06
1.15856e-06
1.15818e-06
1.1565e-06
1.1565e-06
1.1565e-06
1.1565e-06
1.1565e-06
1.15836e-06
1.15858e-06
1.15875e-06
1.15942e-06
1.15856e-06
1.1582e-06
1.1565e-06
1.1565e-06
1.1565e-06
1.15839e-06
1.15858e-06
1.15872e-06
1.15959e-06
1.15942e-06
1.15865e-06
1.15866e-06
1.15864e-06
1.15865e-06
1.15867e-06
1.15875e-06
1.15959e-06
1.15948e-06
1.15959e-06
1.15958e-06
1.15958e-06
1.1596e-06
1.14878e-06
1.14778e-06
1.14771e-06
1.14776e-06
1.14874e-06
1.14881e-06
1.14882e-06
1.14792e-06
1.14741e-06
1.14586e-06
1.14586e-06
1.14586e-06
1.14756e-06
1.14792e-06
1.14877e-06
1.14792e-06
1.14738e-06
1.14586e-06
1.14586e-06
1.14586e-06
1.14586e-06
1.14586e-06
1.14753e-06
1.14792e-06
1.14878e-06
1.14878e-06
1.14742e-06
1.14586e-06
1.14586e-06
1.14586e-06
1.14586e-06
1.14586e-06
1.14586e-06
1.14586e-06
1.14756e-06
1.148e-06
1.14884e-06
1.14778e-06
1.14586e-06
1.14586e-06
1.14586e-06
1.14586e-06
1.14586e-06
1.14586e-06
1.14586e-06
1.14586e-06
1.14586e-06
1.14801e-06
1.14895e-06
1.14771e-06
1.14586e-06
1.14586e-06
1.14586e-06
1.14586e-06
1.14586e-06
1.14586e-06
1.14586e-06
1.14586e-06
1.14586e-06
1.14799e-06
1.14894e-06
1.14776e-06
1.14586e-06
1.14586e-06
1.14586e-06
1.14586e-06
1.14586e-06
1.14586e-06
1.14586e-06
1.14586e-06
1.14586e-06
1.148e-06
1.14894e-06
1.14874e-06
1.14756e-06
1.14586e-06
1.14586e-06
1.14586e-06
1.14586e-06
1.14586e-06
1.14586e-06
1.14586e-06
1.14775e-06
1.14803e-06
1.14895e-06
1.14881e-06
1.14792e-06
1.14753e-06
1.14586e-06
1.14586e-06
1.14586e-06
1.14586e-06
1.14586e-06
1.14771e-06
1.14794e-06
1.1481e-06
1.14877e-06
1.14792e-06
1.14756e-06
1.14586e-06
1.14586e-06
1.14586e-06
1.14775e-06
1.14794e-06
1.14808e-06
1.14894e-06
1.14878e-06
1.148e-06
1.14801e-06
1.14799e-06
1.148e-06
1.14803e-06
1.1481e-06
1.14894e-06
1.14884e-06
1.14895e-06
1.14894e-06
1.14894e-06
1.14895e-06
1.13813e-06
1.13714e-06
1.13707e-06
1.13712e-06
1.13809e-06
1.13816e-06
1.13818e-06
1.13728e-06
1.13677e-06
1.13521e-06
1.13521e-06
1.13521e-06
1.13691e-06
1.13728e-06
1.13813e-06
1.13728e-06
1.13674e-06
1.13521e-06
1.13521e-06
1.13521e-06
1.13521e-06
1.13521e-06
1.13689e-06
1.13727e-06
1.13813e-06
1.13813e-06
1.13677e-06
1.13521e-06
1.13521e-06
1.13521e-06
1.13521e-06
1.13521e-06
1.13521e-06
1.13521e-06
1.13691e-06
1.13736e-06
1.13819e-06
1.13714e-06
1.13521e-06
1.13521e-06
1.13521e-06
1.13521e-06
1.13521e-06
1.13521e-06
1.13521e-06
1.13521e-06
1.13521e-06
1.13737e-06
1.1383e-06
1.13707e-06
1.13521e-06
1.13521e-06
1.13521e-06
1.13521e-06
1.13521e-06
1.13521e-06
1.13521e-06
1.13521e-06
1.13521e-06
1.13735e-06
1.1383e-06
1.13712e-06
1.13521e-06
1.13521e-06
1.13521e-06
1.13521e-06
1.13521e-06
1.13521e-06
1.13521e-06
1.13521e-06
1.13521e-06
1.13736e-06
1.1383e-06
1.13809e-06
1.13691e-06
1.13521e-06
1.13521e-06
1.13521e-06
1.13521e-06
1.13521e-06
1.13521e-06
1.13521e-06
1.13711e-06
1.13739e-06
1.13831e-06
1.13816e-06
1.13728e-06
1.13689e-06
1.13521e-06
1.13521e-06
1.13521e-06
1.13521e-06
1.13521e-06
1.13707e-06
1.1373e-06
1.13746e-06
1.13813e-06
1.13727e-06
1.13691e-06
1.13521e-06
1.13521e-06
1.13521e-06
1.13711e-06
1.1373e-06
1.13743e-06
1.1383e-06
1.13813e-06
1.13736e-06
1.13737e-06
1.13735e-06
1.13736e-06
1.13739e-06
1.13746e-06
1.1383e-06
1.13819e-06
1.1383e-06
1.1383e-06
1.1383e-06
1.13831e-06
1.12749e-06
1.1265e-06
1.12642e-06
1.12647e-06
1.12745e-06
1.12752e-06
1.12753e-06
1.12664e-06
1.12613e-06
1.12457e-06
1.12457e-06
1.12457e-06
1.12627e-06
1.12663e-06
1.12748e-06
1.12664e-06
1.12609e-06
1.12457e-06
1.12457e-06
1.12457e-06
1.12457e-06
1.12457e-06
1.12624e-06
1.12663e-06
1.12749e-06
1.12749e-06
1.12613e-06
1.12457e-06
1.12457e-06
1.12457e-06
1.12457e-06
1.12457e-06
1.12457e-06
1.12457e-06
1.12627e-06
1.12671e-06
1.12755e-06
1.1265e-06
1.12457e-06
1.12457e-06
1.12457e-06
1.12457e-06
1.12457e-06
1.12457e-06
1.12457e-06
1.12457e-06
1.12457e-06
1.12673e-06
1.12766e-06
1.12642e-06
1.12457e-06
1.12457e-06
1.12457e-06
1.12457e-06
1.12457e-06
1.12457e-06
1.12457e-06
1.12457e-06
1.12457e-06
1.1267e-06
1.12765e-06
1.12647e-06
1.12457e-06
1.12457e-06
1.12457e-06
1.12457e-06
1.12457e-06
1.12457e-06
1.12457e-06
1.12457e-06
1.12457e-06
1.12671e-06
1.12765e-06
1.12745e-06
1.12627e-06
1.12457e-06
1.12457e-06
1.12457e-06
1.12457e-06
1.12457e-06
1.12457e-06
1.12457e-06
1.12646e-06
1.12674e-06
1.12767e-06
1.12752e-06
1.12663e-06
1.12624e-06
1.12457e-06
1.12457e-06
1.12457e-06
1.12457e-06
1.12457e-06
1.12643e-06
1.12665e-06
1.12681e-06
1.12748e-06
1.12663e-06
1.12627e-06
1.12457e-06
1.12457e-06
1.12457e-06
1.12646e-06
1.12665e-06
1.12679e-06
1.12765e-06
1.12749e-06
1.12671e-06
1.12673e-06
1.1267e-06
1.12671e-06
1.12674e-06
1.12681e-06
1.12765e-06
1.12755e-06
1.12766e-06
1.12765e-06
1.12765e-06
1.12767e-06
1.11685e-06
1.11585e-06
1.11578e-06
1.11583e-06
1.1168e-06
1.11688e-06
1.11689e-06
1.11599e-06
1.11548e-06
1.11392e-06
1.11392e-06
1.11392e-06
1.11563e-06
1.11599e-06
1.11684e-06
1.11599e-06
1.11545e-06
1.11392e-06
1.11392e-06
1.11392e-06
1.11392e-06
1.11392e-06
1.1156e-06
1.11599e-06
1.11684e-06
1.11685e-06
1.11548e-06
1.11392e-06
1.11392e-06
1.11392e-06
1.11392e-06
1.11392e-06
1.11392e-06
1.11392e-06
1.11563e-06
1.11607e-06
1.1169e-06
1.11585e-06
1.11392e-06
1.11392e-06
1.11392e-06
1.11393e-06
1.11392e-06
1.11393e-06
1.11392e-06
1.11392e-06
1.11392e-06
1.11608e-06
1.11701e-06
1.11578e-06
1.11392e-06
1.11392e-06
1.11392e-06
1.11392e-06
1.11392e-06
1.11392e-06
1.11392e-06
1.11392e-06
1.11392e-06
1.11606e-06
1.11701e-06
1.11583e-06
1.11392e-06
1.11392e-06
1.11392e-06
1.11393e-06
1.11392e-06
1.11393e-06
1.11392e-06
1.11392e-06
1.11392e-06
1.11607e-06
1.11701e-06
1.1168e-06
1.11563e-06
1.11392e-06
1.11392e-06
1.11392e-06
1.11392e-06
1.11392e-06
1.11392e-06
1.11392e-06
1.11582e-06
1.1161e-06
1.11702e-06
1.11688e-06
1.11599e-06
1.1156e-06
1.11392e-06
1.11392e-06
1.11392e-06
1.11392e-06
1.11392e-06
1.11578e-06
1.11601e-06
1.11617e-06
1.11684e-06
1.11599e-06
1.11563e-06
1.11392e-06
1.11392e-06
1.11392e-06
1.11582e-06
1.11601e-06
1.11614e-06
1.11701e-06
1.11684e-06
1.11607e-06
1.11608e-06
1.11606e-06
1.11607e-06
1.1161e-06
1.11617e-06
1.11701e-06
1.1169e-06
1.11701e-06
1.11701e-06
1.11701e-06
1.11702e-06
1.1062e-06
1.10521e-06
1.10514e-06
1.10519e-06
1.10616e-06
1.10623e-06
1.10624e-06
1.10535e-06
1.10484e-06
1.10328e-06
1.10328e-06
1.10328e-06
1.10498e-06
1.10535e-06
1.1062e-06
1.10535e-06
1.10481e-06
1.10328e-06
1.10328e-06
1.10328e-06
1.10328e-06
1.10328e-06
1.10496e-06
1.10534e-06
1.1062e-06
1.1062e-06
1.10484e-06
1.10328e-06
1.10328e-06
1.10328e-06
1.10328e-06
1.10328e-06
1.10328e-06
1.10328e-06
1.10498e-06
1.10543e-06
1.10626e-06
1.10521e-06
1.10328e-06
1.10328e-06
1.10328e-06
1.10328e-06
1.10328e-06
1.10328e-06
1.10328e-06
1.10328e-06
1.10328e-06
1.10544e-06
1.10637e-06
1.10514e-06
1.10328e-06
1.10328e-06
1.10328e-06
1.10328e-06
1.10328e-06
1.10328e-06
1.10328e-06
1.10328e-06
1.10328e-06
1.10542e-06
1.10636e-06
1.10519e-06
1.10328e-06
1.10328e-06
1.10328e-06
1.10328e-06
1.10328e-06
1.10328e-06
1.10328e-06
1.10328e-06
1.10328e-06
1.10543e-06
1.10637e-06
1.10616e-06
1.10498e-06
1.10328e-06
1.10328e-06
1.10328e-06
1.10328e-06
1.10328e-06
1.10328e-06
1.10328e-06
1.10517e-06
1.10546e-06
1.10638e-06
1.10623e-06
1.10535e-06
1.10496e-06
1.10328e-06
1.10328e-06
1.10328e-06
1.10328e-06
1.10328e-06
1.10514e-06
1.10537e-06
1.10553e-06
1.1062e-06
1.10534e-06
1.10498e-06
1.10328e-06
1.10328e-06
1.10328e-06
1.10517e-06
1.10537e-06
1.1055e-06
1.10637e-06
1.1062e-06
1.10543e-06
1.10544e-06
1.10542e-06
1.10543e-06
1.10546e-06
1.10553e-06
1.10637e-06
1.10626e-06
1.10637e-06
1.10636e-06
1.10637e-06
1.10638e-06
1.09556e-06
1.09457e-06
1.09449e-06
1.09454e-06
1.09552e-06
1.09559e-06
1.0956e-06
1.09471e-06
1.0942e-06
1.09264e-06
1.09264e-06
1.09264e-06
1.09434e-06
1.0947e-06
1.09555e-06
1.09471e-06
1.09416e-06
1.09264e-06
1.09264e-06
1.09264e-06
1.09264e-06
1.09264e-06
1.09431e-06
1.0947e-06
1.09556e-06
1.09556e-06
1.0942e-06
1.09264e-06
1.09264e-06
1.09264e-06
1.09264e-06
1.09264e-06
1.09264e-06
1.09264e-06
1.09434e-06
1.09478e-06
1.09562e-06
1.09457e-06
1.09264e-06
1.09264e-06
1.09264e-06
1.09264e-06
1.09264e-06
1.09264e-06
1.09264e-06
1.09264e-06
1.09264e-06
1.0948e-06
1.09573e-06
1.09449e-06
1.09264e-06
1.09264e-06
1.09264e-06
1.09264e-06
1.09264e-06
1.09264e-06
1.09264e-06
1.09264e-06
1.09264e-06
1.09477e-06
1.09572e-06
1.09454e-06
1.09264e-06
1.09264e-06
1.09264e-06
1.09264e-06
1.09264e-06
1.09264e-06
1.09264e-06
1.09264e-06
1.09264e-06
1.09478e-06
1.09572e-06
1.09552e-06
1.09434e-06
1.09264e-06
1.09264e-06
1.09264e-06
1.09264e-06
1.09264e-06
1.09264e-06
1.09264e-06
1.09453e-06
1.09481e-06
1.09573e-06
1.09559e-06
1.0947e-06
1.09431e-06
1.09264e-06
1.09264e-06
1.09264e-06
1.09264e-06
1.09264e-06
1.09449e-06
1.09472e-06
1.09488e-06
1.09555e-06
1.0947e-06
1.09434e-06
1.09264e-06
1.09264e-06
1.09264e-06
1.09453e-06
1.09472e-06
1.09486e-06
1.09572e-06
1.09556e-06
1.09478e-06
1.0948e-06
1.09477e-06
1.09478e-06
1.09481e-06
1.09488e-06
1.09572e-06
1.09562e-06
1.09573e-06
1.09572e-06
1.09572e-06
1.09573e-06
1.08492e-06
1.08392e-06
1.08385e-06
1.0839e-06
1.08487e-06
1.08495e-06
1.08496e-06
1.08406e-06
1.08355e-06
1.08199e-06
1.08199e-06
1.08199e-06
1.08369e-06
1.08406e-06
1.08491e-06
1.08406e-06
1.08352e-06
1.08199e-06
1.08199e-06
1.08199e-06
1.08199e-06
1.08199e-06
1.08367e-06
1.08406e-06
1.08491e-06
1.08492e-06
1.08355e-06
1.08199e-06
1.08199e-06
1.08199e-06
1.08199e-06
1.08199e-06
1.08199e-06
1.08199e-06
1.08369e-06
1.08414e-06
1.08497e-06
1.08392e-06
1.08199e-06
1.08199e-06
1.08199e-06
1.08199e-06
1.08199e-06
1.08199e-06
1.08199e-06
1.08199e-06
1.08199e-06
1.08415e-06
1.08508e-06
1.08385e-06
1.08199e-06
1.08199e-06
1.08199e-06
1.08199e-06
1.08199e-06
1.08199e-06
1.08199e-06
1.08199e-06
1.08199e-06
1.08413e-06
1.08508e-06
1.0839e-06
1.08199e-06
1.08199e-06
1.08199e-06
1.08199e-06
1.08199e-06
1.08199e-06
1.08199e-06
1.08199e-06
1.08199e-06
1.08414e-06
1.08508e-06
1.08487e-06
1.08369e-06
1.08199e-06
1.08199e-06
1.08199e-06
1.08199e-06
1.08199e-06
1.08199e-06
1.08199e-06
1.08389e-06
1.08417e-06
1.08509e-06
1.08495e-06
1.08406e-06
1.08367e-06
1.08199e-06
1.08199e-06
1.08199e-06
1.08199e-06
1.08199e-06
1.08385e-06
1.08408e-06
1.08424e-06
1.08491e-06
1.08406e-06
1.08369e-06
1.08199e-06
1.08199e-06
1.08199e-06
1.08389e-06
1.08408e-06
1.08421e-06
1.08508e-06
1.08491e-06
1.08414e-06
1.08415e-06
1.08413e-06
1.08414e-06
1.08417e-06
1.08424e-06
1.08508e-06
1.08497e-06
1.08508e-06
1.08508e-06
1.08508e-06
1.08509e-06
1.07427e-06
1.07328e-06
1.0732e-06
1.07325e-06
1.07423e-06
1.0743e-06
1.07431e-06
1.07342e-06
1.07291e-06
1.07135e-06
1.07135e-06
1.07135e-06
1.07305e-06
1.07341e-06
1.07426e-06
1.07342e-06
1.07288e-06
1.07135e-06
1.07135e-06
1.07135e-06
1.07135e-06
1.07135e-06
1.07303e-06
1.07341e-06
1.07427e-06
1.07427e-06
1.07291e-06
1.07135e-06
1.07135e-06
1.07135e-06
1.07135e-06
1.07135e-06
1.07135e-06
1.07135e-06
1.07305e-06
1.0735e-06
1.07433e-06
1.07328e-06
1.07135e-06
1.07135e-06
1.07135e-06
1.07135e-06
1.07135e-06
1.07135e-06
1.07135e-06
1.07135e-06
1.07135e-06
1.07351e-06
1.07444e-06
1.0732e-06
1.07135e-06
1.07135e-06
1.07135e-06
1.07135e-06
1.07135e-06
1.07135e-06
1.07135e-06
1.07135e-06
1.07135e-06
1.07349e-06
1.07443e-06
1.07325e-06
1.07135e-06
1.07135e-06
1.07135e-06
1.07135e-06
1.07135e-06
1.07135e-06
1.07135e-06
1.07135e-06
1.07135e-06
1.0735e-06
1.07443e-06
1.07423e-06
1.07305e-06
1.07135e-06
1.07135e-06
1.07135e-06
1.07135e-06
1.07135e-06
1.07135e-06
1.07135e-06
1.07324e-06
1.07353e-06
1.07445e-06
1.0743e-06
1.07341e-06
1.07303e-06
1.07135e-06
1.07135e-06
1.07135e-06
1.07135e-06
1.07135e-06
1.07321e-06
1.07343e-06
1.0736e-06
1.07426e-06
1.07341e-06
1.07305e-06
1.07135e-06
1.07135e-06
1.07135e-06
1.07324e-06
1.07343e-06
1.07357e-06
1.07444e-06
1.07427e-06
1.0735e-06
1.07351e-06
1.07349e-06
1.0735e-06
1.07352e-06
1.0736e-06
1.07444e-06
1.07433e-06
1.07444e-06
1.07443e-06
1.07443e-06
1.07445e-06
1.06363e-06
1.06263e-06
1.06256e-06
1.06261e-06
1.06359e-06
1.06366e-06
1.06367e-06
1.06277e-06
1.06226e-06
1.0607e-06
1.06071e-06
1.06071e-06
1.06241e-06
1.06277e-06
1.06362e-06
1.06277e-06
1.06223e-06
1.06071e-06
1.06071e-06
1.06071e-06
1.06071e-06
1.06071e-06
1.06238e-06
1.06277e-06
1.06363e-06
1.06363e-06
1.06226e-06
1.06071e-06
1.06071e-06
1.06071e-06
1.06071e-06
1.06071e-06
1.06071e-06
1.06071e-06
1.06241e-06
1.06285e-06
1.06369e-06
1.06263e-06
1.06071e-06
1.06071e-06
1.06071e-06
1.06071e-06
1.06071e-06
1.06071e-06
1.06071e-06
1.06071e-06
1.06071e-06
1.06286e-06
1.06379e-06
1.06256e-06
1.06071e-06
1.06071e-06
1.06071e-06
1.06071e-06
1.06071e-06
1.06071e-06
1.06071e-06
1.06071e-06
1.06071e-06
1.06284e-06
1.06379e-06
1.06261e-06
1.06071e-06
1.06071e-06
1.06071e-06
1.06071e-06
1.06071e-06
1.06071e-06
1.06071e-06
1.06071e-06
1.06071e-06
1.06285e-06
1.06379e-06
1.06359e-06
1.06241e-06
1.06071e-06
1.06071e-06
1.06071e-06
1.06071e-06
1.06071e-06
1.06071e-06
1.06071e-06
1.0626e-06
1.06288e-06
1.0638e-06
1.06366e-06
1.06277e-06
1.06238e-06
1.06071e-06
1.06071e-06
1.06071e-06
1.06071e-06
1.06071e-06
1.06256e-06
1.06279e-06
1.06295e-06
1.06362e-06
1.06277e-06
1.06241e-06
1.06071e-06
1.06071e-06
1.06071e-06
1.0626e-06
1.06279e-06
1.06293e-06
1.06379e-06
1.06363e-06
1.06285e-06
1.06286e-06
1.06284e-06
1.06285e-06
1.06288e-06
1.06295e-06
1.06379e-06
1.06369e-06
1.06379e-06
1.06379e-06
1.06379e-06
1.0638e-06
1.05298e-06
1.05199e-06
1.05192e-06
1.05197e-06
1.05294e-06
1.05301e-06
1.05303e-06
1.05213e-06
1.05162e-06
1.05006e-06
1.05006e-06
1.05006e-06
1.05176e-06
1.05213e-06
1.05298e-06
1.05213e-06
1.05159e-06
1.05006e-06
1.05006e-06
1.05006e-06
1.05006e-06
1.05006e-06
1.05174e-06
1.05212e-06
1.05298e-06
1.05298e-06
1.05162e-06
1.05006e-06
1.05006e-06
1.05006e-06
1.05006e-06
1.05006e-06
1.05006e-06
1.05006e-06
1.05176e-06
1.05221e-06
1.05304e-06
1.05199e-06
1.05006e-06
1.05006e-06
1.05006e-06
1.05006e-06
1.05006e-06
1.05006e-06
1.05006e-06
1.05006e-06
1.05006e-06
1.05222e-06
1.05315e-06
1.05192e-06
1.05006e-06
1.05006e-06
1.05006e-06
1.05006e-06
1.05006e-06
1.05006e-06
1.05006e-06
1.05006e-06
1.05006e-06
1.0522e-06
1.05315e-06
1.05197e-06
1.05006e-06
1.05006e-06
1.05006e-06
1.05006e-06