/*--------------------------------*- C++ -*----------------------------------*\
| =========                 |                                                 |
| \\      /  F ield         | OpenFOAM: The Open Source CFD Toolbox           |
|  \\    /   O peration     | Version:  v2012                                 |
|   \\  /    A nd           | Website:  www.openfoam.com                      |
|    \\/     M anipulation  |                                                 |
\*---------------------------------------------------------------------------*/
FoamFile
{
    version     2.0;
    format      ascii;
    class       volScalarField;
    location    "35";
    object      p;
}
// * * * * * * * * * * * * * * * * * * * * * * * * * * * * * * * * * * * * * //

dimensions      [0 2 -2 0 0 0 0];


internalField   nonuniform List<scalar> 
292667
(
1.35512e-06
1.34492e-06
1.34406e-06
1.34414e-06
1.34534e-06
1.35607e-06
1.34513e-06
1.34207e-06
1.3403e-06
1.33958e-06
1.33967e-06
1.34062e-06
1.34267e-06
1.34603e-06
1.34513e-06
1.34117e-06
1.33874e-06
1.33741e-06
1.33685e-06
1.33692e-06
1.33765e-06
1.33921e-06
1.34197e-06
1.3463e-06
1.35512e-06
1.34207e-06
1.33874e-06
1.33678e-06
1.33568e-06
1.33521e-06
1.33528e-06
1.33589e-06
1.33716e-06
1.3394e-06
1.34315e-06
1.35501e-06
1.34492e-06
1.3403e-06
1.33741e-06
1.33568e-06
1.33471e-06
1.33428e-06
1.33434e-06
1.33489e-06
1.33603e-06
1.33799e-06
1.34128e-06
1.34905e-06
1.34406e-06
1.33958e-06
1.33685e-06
1.33521e-06
1.33428e-06
1.33388e-06
1.33393e-06
1.33446e-06
1.33554e-06
1.3374e-06
1.34052e-06
1.34716e-06
1.34414e-06
1.33967e-06
1.33692e-06
1.33528e-06
1.33434e-06
1.33393e-06
1.33399e-06
1.33452e-06
1.33561e-06
1.33748e-06
1.34063e-06
1.3475e-06
1.34534e-06
1.34062e-06
1.33765e-06
1.33589e-06
1.33489e-06
1.33446e-06
1.33452e-06
1.33508e-06
1.33625e-06
1.33826e-06
1.34165e-06
1.34941e-06
1.35607e-06
1.34267e-06
1.33921e-06
1.33716e-06
1.33603e-06
1.33554e-06
1.33561e-06
1.33625e-06
1.33758e-06
1.33992e-06
1.34381e-06
1.35502e-06
1.34603e-06
1.34197e-06
1.3394e-06
1.33799e-06
1.3374e-06
1.33748e-06
1.33826e-06
1.33992e-06
1.34284e-06
1.34996e-06
1.3463e-06
1.34315e-06
1.34128e-06
1.34052e-06
1.34063e-06
1.34165e-06
1.34381e-06
1.34996e-06
1.35501e-06
1.34905e-06
1.34716e-06
1.3475e-06
1.34941e-06
1.35502e-06
1.32562e-06
1.32452e-06
1.32449e-06
1.32452e-06
1.32552e-06
1.32547e-06
1.32569e-06
1.32481e-06
1.32439e-06
1.32271e-06
1.32268e-06
1.3227e-06
1.32452e-06
1.3248e-06
1.32566e-06
1.32481e-06
1.3244e-06
1.32276e-06
1.32268e-06
1.32273e-06
1.32268e-06
1.32276e-06
1.32449e-06
1.32478e-06
1.32563e-06
1.32562e-06
1.32438e-06
1.32276e-06
1.32268e-06
1.32272e-06
1.32271e-06
1.32272e-06
1.32268e-06
1.32276e-06
1.32448e-06
1.3248e-06
1.32573e-06
1.32452e-06
1.3227e-06
1.32268e-06
1.32272e-06
1.32269e-06
1.32269e-06
1.32269e-06
1.32273e-06
1.32268e-06
1.32271e-06
1.3249e-06
1.32581e-06
1.32449e-06
1.32268e-06
1.32273e-06
1.32271e-06
1.32269e-06
1.32268e-06
1.32269e-06
1.32271e-06
1.32273e-06
1.32268e-06
1.32489e-06
1.32564e-06
1.32452e-06
1.3227e-06
1.32268e-06
1.32272e-06
1.32269e-06
1.32269e-06
1.32269e-06
1.32272e-06
1.32268e-06
1.32271e-06
1.3249e-06
1.32569e-06
1.32552e-06
1.32452e-06
1.32276e-06
1.32268e-06
1.32272e-06
1.32271e-06
1.32272e-06
1.32268e-06
1.32276e-06
1.32461e-06
1.32483e-06
1.32579e-06
1.32546e-06
1.3248e-06
1.32449e-06
1.32276e-06
1.32268e-06
1.32273e-06
1.32268e-06
1.32276e-06
1.32457e-06
1.32478e-06
1.32485e-06
1.32566e-06
1.32478e-06
1.32448e-06
1.32271e-06
1.32268e-06
1.3227e-06
1.32461e-06
1.32478e-06
1.32492e-06
1.32579e-06
1.32563e-06
1.3248e-06
1.3249e-06
1.32489e-06
1.3249e-06
1.32482e-06
1.32485e-06
1.32578e-06
1.32573e-06
1.32581e-06
1.32564e-06
1.32568e-06
1.32578e-06
1.31432e-06
1.31326e-06
1.31319e-06
1.31323e-06
1.31426e-06
1.31434e-06
1.31437e-06
1.31343e-06
1.31293e-06
1.31128e-06
1.31127e-06
1.31128e-06
1.31307e-06
1.31343e-06
1.3143e-06
1.31342e-06
1.31293e-06
1.31133e-06
1.31133e-06
1.31137e-06
1.31133e-06
1.31133e-06
1.31307e-06
1.31342e-06
1.3143e-06
1.31432e-06
1.31293e-06
1.31133e-06
1.31134e-06
1.31141e-06
1.31141e-06
1.31141e-06
1.31134e-06
1.31133e-06
1.31307e-06
1.31348e-06
1.31438e-06
1.31326e-06
1.31128e-06
1.31133e-06
1.31141e-06
1.31142e-06
1.31144e-06
1.31142e-06
1.31141e-06
1.31133e-06
1.31128e-06
1.31349e-06
1.31447e-06
1.31319e-06
1.31127e-06
1.31137e-06
1.31141e-06
1.31144e-06
1.31145e-06
1.31144e-06
1.31141e-06
1.31137e-06
1.31127e-06
1.31348e-06
1.31446e-06
1.31323e-06
1.31128e-06
1.31133e-06
1.31141e-06
1.31142e-06
1.31144e-06
1.31142e-06
1.31141e-06
1.31133e-06
1.31128e-06
1.31349e-06
1.31447e-06
1.31426e-06
1.31307e-06
1.31133e-06
1.31134e-06
1.31141e-06
1.31141e-06
1.31141e-06
1.31134e-06
1.31133e-06
1.31323e-06
1.3135e-06
1.31449e-06
1.31434e-06
1.31343e-06
1.31307e-06
1.31133e-06
1.31133e-06
1.31137e-06
1.31133e-06
1.31133e-06
1.31321e-06
1.31342e-06
1.31356e-06
1.3143e-06
1.31342e-06
1.31307e-06
1.31128e-06
1.31127e-06
1.31128e-06
1.31323e-06
1.31341e-06
1.31354e-06
1.31447e-06
1.3143e-06
1.31348e-06
1.31349e-06
1.31348e-06
1.31348e-06
1.3135e-06
1.31355e-06
1.31447e-06
1.31438e-06
1.31447e-06
1.31446e-06
1.31446e-06
1.31449e-06
1.30309e-06
1.30202e-06
1.30194e-06
1.30199e-06
1.30303e-06
1.30312e-06
1.30314e-06
1.30217e-06
1.30165e-06
1.29998e-06
1.29998e-06
1.29998e-06
1.30179e-06
1.30217e-06
1.30307e-06
1.30217e-06
1.30163e-06
1.30001e-06
1.30002e-06
1.30005e-06
1.30002e-06
1.30001e-06
1.30178e-06
1.30216e-06
1.30307e-06
1.30309e-06
1.30165e-06
1.30001e-06
1.30004e-06
1.30008e-06
1.30008e-06
1.30008e-06
1.30004e-06
1.30001e-06
1.30179e-06
1.30224e-06
1.30315e-06
1.30202e-06
1.29998e-06
1.30002e-06
1.30008e-06
1.3001e-06
1.30011e-06
1.3001e-06
1.30008e-06
1.30002e-06
1.29998e-06
1.30224e-06
1.30325e-06
1.30194e-06
1.29998e-06
1.30005e-06
1.30008e-06
1.30011e-06
1.30012e-06
1.30011e-06
1.30008e-06
1.30005e-06
1.29998e-06
1.30222e-06
1.30323e-06
1.30199e-06
1.29998e-06
1.30002e-06
1.30008e-06
1.3001e-06
1.30011e-06
1.3001e-06
1.30008e-06
1.30002e-06
1.29998e-06
1.30223e-06
1.30323e-06
1.30303e-06
1.30179e-06
1.30001e-06
1.30004e-06
1.30008e-06
1.30008e-06
1.30008e-06
1.30004e-06
1.30001e-06
1.30197e-06
1.30226e-06
1.30326e-06
1.30311e-06
1.30216e-06
1.30178e-06
1.30001e-06
1.30002e-06
1.30005e-06
1.30002e-06
1.30001e-06
1.30194e-06
1.30216e-06
1.30233e-06
1.30307e-06
1.30216e-06
1.30179e-06
1.29998e-06
1.29998e-06
1.29998e-06
1.30197e-06
1.30216e-06
1.3023e-06
1.30325e-06
1.30307e-06
1.30224e-06
1.30224e-06
1.30222e-06
1.30223e-06
1.30226e-06
1.30233e-06
1.30325e-06
1.30315e-06
1.30325e-06
1.30323e-06
1.30323e-06
1.30326e-06
1.29186e-06
1.29078e-06
1.2907e-06
1.29075e-06
1.2918e-06
1.29188e-06
1.29191e-06
1.29093e-06
1.2904e-06
1.28872e-06
1.28872e-06
1.28872e-06
1.29054e-06
1.29092e-06
1.29184e-06
1.29093e-06
1.29038e-06
1.28874e-06
1.28875e-06
1.28876e-06
1.28875e-06
1.28874e-06
1.29052e-06
1.29092e-06
1.29184e-06
1.29186e-06
1.2904e-06
1.28874e-06
1.28876e-06
1.28878e-06
1.28878e-06
1.28878e-06
1.28876e-06
1.28874e-06
1.29054e-06
1.291e-06
1.29192e-06
1.29078e-06
1.28872e-06
1.28875e-06
1.28878e-06
1.2888e-06
1.28881e-06
1.2888e-06
1.28878e-06
1.28875e-06
1.28872e-06
1.291e-06
1.29201e-06
1.2907e-06
1.28872e-06
1.28876e-06
1.28878e-06
1.28881e-06
1.28881e-06
1.28881e-06
1.28878e-06
1.28876e-06
1.28872e-06
1.29097e-06
1.292e-06
1.29075e-06
1.28872e-06
1.28875e-06
1.28878e-06
1.2888e-06
1.28881e-06
1.2888e-06
1.28878e-06
1.28875e-06
1.28872e-06
1.29098e-06
1.292e-06
1.2918e-06
1.29054e-06
1.28874e-06
1.28876e-06
1.28878e-06
1.28878e-06
1.28878e-06
1.28876e-06
1.28874e-06
1.29072e-06
1.29102e-06
1.29203e-06
1.29188e-06
1.29092e-06
1.29052e-06
1.28874e-06
1.28875e-06
1.28876e-06
1.28875e-06
1.28874e-06
1.29068e-06
1.29092e-06
1.2911e-06
1.29184e-06
1.29092e-06
1.29054e-06
1.28872e-06
1.28872e-06
1.28872e-06
1.29072e-06
1.29092e-06
1.29107e-06
1.29202e-06
1.29184e-06
1.291e-06
1.291e-06
1.29097e-06
1.29098e-06
1.29102e-06
1.2911e-06
1.29202e-06
1.29192e-06
1.29201e-06
1.292e-06
1.292e-06
1.29203e-06
1.28062e-06
1.27954e-06
1.27946e-06
1.27951e-06
1.28056e-06
1.28065e-06
1.28067e-06
1.27969e-06
1.27916e-06
1.27748e-06
1.27748e-06
1.27748e-06
1.2793e-06
1.27968e-06
1.2806e-06
1.27969e-06
1.27913e-06
1.27748e-06
1.27749e-06
1.27749e-06
1.27749e-06
1.27748e-06
1.27927e-06
1.27968e-06
1.28061e-06
1.28062e-06
1.27916e-06
1.27748e-06
1.27749e-06
1.27751e-06
1.27751e-06
1.27751e-06
1.27749e-06
1.27748e-06
1.2793e-06
1.27976e-06
1.28068e-06
1.27954e-06
1.27748e-06
1.27749e-06
1.27751e-06
1.27752e-06
1.27752e-06
1.27752e-06
1.27751e-06
1.27749e-06
1.27748e-06
1.27976e-06
1.28078e-06
1.27946e-06
1.27748e-06
1.27749e-06
1.27751e-06
1.27752e-06
1.27753e-06
1.27752e-06
1.27751e-06
1.27749e-06
1.27748e-06
1.27973e-06
1.28076e-06
1.27951e-06
1.27748e-06
1.27749e-06
1.27751e-06
1.27752e-06
1.27752e-06
1.27752e-06
1.27751e-06
1.27749e-06
1.27748e-06
1.27974e-06
1.28076e-06
1.28056e-06
1.2793e-06
1.27748e-06
1.27749e-06
1.27751e-06
1.27751e-06
1.27751e-06
1.27749e-06
1.27748e-06
1.27948e-06
1.27978e-06
1.28079e-06
1.28065e-06
1.27968e-06
1.27927e-06
1.27748e-06
1.27749e-06
1.27749e-06
1.27749e-06
1.27748e-06
1.27944e-06
1.27968e-06
1.27986e-06
1.2806e-06
1.27968e-06
1.2793e-06
1.27748e-06
1.27748e-06
1.27748e-06
1.27948e-06
1.27968e-06
1.27983e-06
1.28078e-06
1.28061e-06
1.27976e-06
1.27976e-06
1.27973e-06
1.27974e-06
1.27978e-06
1.27986e-06
1.28078e-06
1.28068e-06
1.28078e-06
1.28076e-06
1.28076e-06
1.28079e-06
1.26938e-06
1.2683e-06
1.26823e-06
1.26828e-06
1.26932e-06
1.26941e-06
1.26943e-06
1.26845e-06
1.26792e-06
1.26623e-06
1.26623e-06
1.26623e-06
1.26806e-06
1.26844e-06
1.26936e-06
1.26845e-06
1.26789e-06
1.26624e-06
1.26624e-06
1.26624e-06
1.26624e-06
1.26624e-06
1.26803e-06
1.26844e-06
1.26937e-06
1.26938e-06
1.26792e-06
1.26624e-06
1.26624e-06
1.26625e-06
1.26625e-06
1.26625e-06
1.26624e-06
1.26624e-06
1.26806e-06
1.26852e-06
1.26944e-06
1.2683e-06
1.26623e-06
1.26624e-06
1.26625e-06
1.26626e-06
1.26626e-06
1.26626e-06
1.26625e-06
1.26624e-06
1.26623e-06
1.26852e-06
1.26954e-06
1.26823e-06
1.26623e-06
1.26624e-06
1.26625e-06
1.26626e-06
1.26626e-06
1.26626e-06
1.26625e-06
1.26624e-06
1.26623e-06
1.26849e-06
1.26952e-06
1.26828e-06
1.26623e-06
1.26624e-06
1.26625e-06
1.26626e-06
1.26626e-06
1.26626e-06
1.26625e-06
1.26624e-06
1.26623e-06
1.26851e-06
1.26953e-06
1.26932e-06
1.26806e-06
1.26624e-06
1.26624e-06
1.26625e-06
1.26625e-06
1.26625e-06
1.26624e-06
1.26624e-06
1.26824e-06
1.26854e-06
1.26955e-06
1.26941e-06
1.26844e-06
1.26803e-06
1.26624e-06
1.26624e-06
1.26624e-06
1.26624e-06
1.26624e-06
1.2682e-06
1.26845e-06
1.26862e-06
1.26936e-06
1.26844e-06
1.26806e-06
1.26623e-06
1.26623e-06
1.26623e-06
1.26824e-06
1.26845e-06
1.2686e-06
1.26954e-06
1.26937e-06
1.26852e-06
1.26852e-06
1.26849e-06
1.26851e-06
1.26854e-06
1.26862e-06
1.26954e-06
1.26944e-06
1.26954e-06
1.26952e-06
1.26953e-06
1.26955e-06
1.25815e-06
1.25706e-06
1.25699e-06
1.25704e-06
1.25808e-06
1.25817e-06
1.25819e-06
1.25722e-06
1.25668e-06
1.25499e-06
1.25499e-06
1.25499e-06
1.25682e-06
1.2572e-06
1.25813e-06
1.25722e-06
1.25665e-06
1.25499e-06
1.255e-06
1.255e-06
1.255e-06
1.25499e-06
1.25679e-06
1.2572e-06
1.25813e-06
1.25815e-06
1.25668e-06
1.25499e-06
1.255e-06
1.255e-06
1.255e-06
1.255e-06
1.255e-06
1.25499e-06
1.25682e-06
1.25728e-06
1.25821e-06
1.25706e-06
1.25499e-06
1.255e-06
1.255e-06
1.255e-06
1.25501e-06
1.255e-06
1.255e-06
1.255e-06
1.25499e-06
1.25728e-06
1.2583e-06
1.25699e-06
1.25499e-06
1.255e-06
1.255e-06
1.25501e-06
1.25501e-06
1.25501e-06
1.255e-06
1.255e-06
1.25499e-06
1.25725e-06
1.25829e-06
1.25704e-06
1.25499e-06
1.255e-06
1.255e-06
1.255e-06
1.25501e-06
1.255e-06
1.255e-06
1.255e-06
1.25499e-06
1.25727e-06
1.25829e-06
1.25808e-06
1.25682e-06
1.25499e-06
1.255e-06
1.255e-06
1.255e-06
1.255e-06
1.255e-06
1.25499e-06
1.257e-06
1.25731e-06
1.25831e-06
1.25817e-06
1.2572e-06
1.25679e-06
1.25499e-06
1.255e-06
1.255e-06
1.255e-06
1.25499e-06
1.25696e-06
1.25721e-06
1.25738e-06
1.25813e-06
1.2572e-06
1.25682e-06
1.25499e-06
1.25499e-06
1.25499e-06
1.257e-06
1.25721e-06
1.25736e-06
1.25831e-06
1.25813e-06
1.25728e-06
1.25728e-06
1.25725e-06
1.25727e-06
1.25731e-06
1.25738e-06
1.25831e-06
1.25821e-06
1.2583e-06
1.25829e-06
1.25829e-06
1.25831e-06
1.24691e-06
1.24582e-06
1.24575e-06
1.2458e-06
1.24685e-06
1.24693e-06
1.24696e-06
1.24598e-06
1.24544e-06
1.24375e-06
1.24375e-06
1.24375e-06
1.24558e-06
1.24596e-06
1.24689e-06
1.24598e-06
1.24541e-06
1.24375e-06
1.24375e-06
1.24376e-06
1.24375e-06
1.24375e-06
1.24555e-06
1.24596e-06
1.24689e-06
1.24691e-06
1.24544e-06
1.24375e-06
1.24376e-06
1.24376e-06
1.24376e-06
1.24376e-06
1.24376e-06
1.24375e-06
1.24558e-06
1.24605e-06
1.24697e-06
1.24582e-06
1.24375e-06
1.24375e-06
1.24376e-06
1.24376e-06
1.24376e-06
1.24376e-06
1.24376e-06
1.24375e-06
1.24375e-06
1.24604e-06
1.24706e-06
1.24575e-06
1.24375e-06
1.24376e-06
1.24376e-06
1.24376e-06
1.24376e-06
1.24376e-06
1.24376e-06
1.24376e-06
1.24375e-06
1.24602e-06
1.24705e-06
1.2458e-06
1.24375e-06
1.24375e-06
1.24376e-06
1.24376e-06
1.24376e-06
1.24376e-06
1.24376e-06
1.24375e-06
1.24375e-06
1.24603e-06
1.24705e-06
1.24685e-06
1.24558e-06
1.24375e-06
1.24376e-06
1.24376e-06
1.24376e-06
1.24376e-06
1.24376e-06
1.24375e-06
1.24576e-06
1.24607e-06
1.24708e-06
1.24693e-06
1.24596e-06
1.24555e-06
1.24375e-06
1.24375e-06
1.24376e-06
1.24375e-06
1.24375e-06
1.24572e-06
1.24597e-06
1.24615e-06
1.24689e-06
1.24596e-06
1.24558e-06
1.24375e-06
1.24375e-06
1.24375e-06
1.24576e-06
1.24597e-06
1.24612e-06
1.24707e-06
1.24689e-06
1.24605e-06
1.24604e-06
1.24602e-06
1.24603e-06
1.24607e-06
1.24615e-06
1.24707e-06
1.24697e-06
1.24706e-06
1.24705e-06
1.24705e-06
1.24708e-06
1.23567e-06
1.23459e-06
1.23451e-06
1.23456e-06
1.23561e-06
1.23569e-06
1.23572e-06
1.23474e-06
1.2342e-06
1.23251e-06
1.23251e-06
1.23251e-06
1.23434e-06
1.23473e-06
1.23565e-06
1.23474e-06
1.23417e-06
1.23251e-06
1.23251e-06
1.23251e-06
1.23251e-06
1.23251e-06
1.23431e-06
1.23472e-06
1.23565e-06
1.23567e-06
1.2342e-06
1.23251e-06
1.23251e-06
1.23252e-06
1.23252e-06
1.23251e-06
1.23251e-06
1.23251e-06
1.23434e-06
1.23481e-06
1.23573e-06
1.23459e-06
1.23251e-06
1.23251e-06
1.23252e-06
1.23252e-06
1.23252e-06
1.23252e-06
1.23252e-06
1.23251e-06
1.23251e-06
1.2348e-06
1.23582e-06
1.23451e-06
1.23251e-06
1.23251e-06
1.23252e-06
1.23252e-06
1.23252e-06
1.23252e-06
1.23252e-06
1.23251e-06
1.23251e-06
1.23478e-06
1.23581e-06
1.23456e-06
1.23251e-06
1.23251e-06
1.23252e-06
1.23252e-06
1.23252e-06
1.23252e-06
1.23252e-06
1.23251e-06
1.23251e-06
1.23479e-06
1.23581e-06
1.23561e-06
1.23434e-06
1.23251e-06
1.23251e-06
1.23252e-06
1.23252e-06
1.23252e-06
1.23251e-06
1.23251e-06
1.23452e-06
1.23483e-06
1.23584e-06
1.23569e-06
1.23473e-06
1.23431e-06
1.23251e-06
1.23251e-06
1.23251e-06
1.23251e-06
1.23251e-06
1.23448e-06
1.23473e-06
1.23491e-06
1.23565e-06
1.23472e-06
1.23434e-06
1.23251e-06
1.23251e-06
1.23251e-06
1.23452e-06
1.23473e-06
1.23488e-06
1.23583e-06
1.23565e-06
1.23481e-06
1.2348e-06
1.23478e-06
1.23479e-06
1.23483e-06
1.23491e-06
1.23583e-06
1.23573e-06
1.23582e-06
1.23581e-06
1.23581e-06
1.23584e-06
1.22443e-06
1.22335e-06
1.22327e-06
1.22332e-06
1.22437e-06
1.22446e-06
1.22448e-06
1.2235e-06
1.22297e-06
1.22127e-06
1.22127e-06
1.22127e-06
1.2231e-06
1.22349e-06
1.22441e-06
1.2235e-06
1.22293e-06
1.22127e-06
1.22127e-06
1.22127e-06
1.22127e-06
1.22127e-06
1.22307e-06
1.22348e-06
1.22441e-06
1.22443e-06
1.22296e-06
1.22127e-06
1.22127e-06
1.22127e-06
1.22128e-06
1.22127e-06
1.22127e-06
1.22127e-06
1.2231e-06
1.22357e-06
1.22449e-06
1.22335e-06
1.22127e-06
1.22127e-06
1.22127e-06
1.22128e-06
1.22128e-06
1.22128e-06
1.22127e-06
1.22127e-06
1.22127e-06
1.22356e-06
1.22458e-06
1.22327e-06
1.22127e-06
1.22127e-06
1.22127e-06
1.22127e-06
1.22128e-06
1.22128e-06
1.22128e-06
1.22127e-06
1.22127e-06
1.22354e-06
1.22457e-06
1.22332e-06
1.22127e-06
1.22127e-06
1.22127e-06
1.22128e-06
1.22128e-06
1.22128e-06
1.22127e-06
1.22127e-06
1.22127e-06
1.22355e-06
1.22457e-06
1.22437e-06
1.2231e-06
1.22127e-06
1.22127e-06
1.22127e-06
1.22128e-06
1.22127e-06
1.22127e-06
1.22127e-06
1.22328e-06
1.22359e-06
1.2246e-06
1.22446e-06
1.22349e-06
1.22307e-06
1.22127e-06
1.22127e-06
1.22127e-06
1.22127e-06
1.22127e-06
1.22324e-06
1.22349e-06
1.22367e-06
1.22441e-06
1.22348e-06
1.2231e-06
1.22127e-06
1.22127e-06
1.22127e-06
1.22328e-06
1.22349e-06
1.22364e-06
1.22459e-06
1.22441e-06
1.22357e-06
1.22356e-06
1.22354e-06
1.22355e-06
1.22359e-06
1.22367e-06
1.22459e-06
1.22449e-06
1.22458e-06
1.22457e-06
1.22457e-06
1.2246e-06
1.21319e-06
1.21211e-06
1.21203e-06
1.21208e-06
1.21313e-06
1.21322e-06
1.21324e-06
1.21226e-06
1.21173e-06
1.21003e-06
1.21003e-06
1.21003e-06
1.21186e-06
1.21225e-06
1.21317e-06
1.21226e-06
1.21169e-06
1.21003e-06
1.21003e-06
1.21003e-06
1.21004e-06
1.21003e-06
1.21184e-06
1.21224e-06
1.21318e-06
1.21319e-06
1.21173e-06
1.21003e-06
1.21004e-06
1.21004e-06
1.21004e-06
1.21004e-06
1.21004e-06
1.21003e-06
1.21186e-06
1.21233e-06
1.21325e-06
1.21211e-06
1.21003e-06
1.21003e-06
1.21004e-06
1.21004e-06
1.21004e-06
1.21004e-06
1.21003e-06
1.21003e-06
1.21003e-06
1.21233e-06
1.21335e-06
1.21203e-06
1.21003e-06
1.21003e-06
1.21004e-06
1.21004e-06
1.21004e-06
1.21004e-06
1.21004e-06
1.21003e-06
1.21003e-06
1.2123e-06
1.21333e-06
1.21208e-06
1.21003e-06
1.21003e-06
1.21004e-06
1.21004e-06
1.21003e-06
1.21004e-06
1.21004e-06
1.21004e-06
1.21003e-06
1.21231e-06
1.21333e-06
1.21313e-06
1.21186e-06
1.21003e-06
1.21004e-06
1.21004e-06
1.21004e-06
1.21004e-06
1.21003e-06
1.21003e-06
1.21204e-06
1.21235e-06
1.21336e-06
1.21322e-06
1.21225e-06
1.21184e-06
1.21003e-06
1.21004e-06
1.21004e-06
1.21004e-06
1.21003e-06
1.212e-06
1.21225e-06
1.21243e-06
1.21317e-06
1.21224e-06
1.21186e-06
1.21003e-06
1.21003e-06
1.21003e-06
1.21204e-06
1.21225e-06
1.2124e-06
1.21335e-06
1.21318e-06
1.21233e-06
1.21233e-06
1.2123e-06
1.21231e-06
1.21235e-06
1.21243e-06
1.21335e-06
1.21325e-06
1.21335e-06
1.21333e-06
1.21333e-06
1.21336e-06
1.20195e-06
1.20087e-06
1.20079e-06
1.20084e-06
1.20189e-06
1.20198e-06
1.202e-06
1.20102e-06
1.20049e-06
1.19879e-06
1.19879e-06
1.19879e-06
1.20062e-06
1.20101e-06
1.20193e-06
1.20102e-06
1.20045e-06
1.1988e-06
1.1988e-06
1.1988e-06
1.1988e-06
1.1988e-06
1.2006e-06
1.201e-06
1.20194e-06
1.20195e-06
1.20049e-06
1.1988e-06
1.1988e-06
1.1988e-06
1.1988e-06
1.1988e-06
1.1988e-06
1.19879e-06
1.20062e-06
1.20109e-06
1.20201e-06
1.20087e-06
1.19879e-06
1.1988e-06
1.1988e-06
1.1988e-06
1.1988e-06
1.1988e-06
1.1988e-06
1.1988e-06
1.19879e-06
1.20109e-06
1.20211e-06
1.20079e-06
1.1988e-06
1.1988e-06
1.1988e-06
1.1988e-06
1.1988e-06
1.1988e-06
1.1988e-06
1.1988e-06
1.1988e-06
1.20106e-06
1.20209e-06
1.20084e-06
1.19879e-06
1.1988e-06
1.1988e-06
1.1988e-06
1.1988e-06
1.1988e-06
1.1988e-06
1.1988e-06
1.19879e-06
1.20107e-06
1.20209e-06
1.20189e-06
1.20062e-06
1.1988e-06
1.1988e-06
1.1988e-06
1.1988e-06
1.1988e-06
1.1988e-06
1.1988e-06
1.2008e-06
1.20111e-06
1.20212e-06
1.20198e-06
1.20101e-06
1.2006e-06
1.1988e-06
1.1988e-06
1.1988e-06
1.1988e-06
1.1988e-06
1.20076e-06
1.20101e-06
1.20119e-06
1.20193e-06
1.201e-06
1.20062e-06
1.1988e-06
1.1988e-06
1.1988e-06
1.2008e-06
1.20101e-06
1.20116e-06
1.20211e-06
1.20194e-06
1.20109e-06
1.20109e-06
1.20106e-06
1.20107e-06
1.20111e-06
1.20119e-06
1.20211e-06
1.20201e-06
1.20211e-06
1.20209e-06
1.20209e-06
1.20212e-06
1.19071e-06
1.18963e-06
1.18955e-06
1.1896e-06
1.19065e-06
1.19074e-06
1.19076e-06
1.18978e-06
1.18925e-06
1.18756e-06
1.18756e-06
1.18756e-06
1.18938e-06
1.18977e-06
1.19069e-06
1.18978e-06
1.18922e-06
1.18756e-06
1.18756e-06
1.18756e-06
1.18756e-06
1.18756e-06
1.18936e-06
1.18977e-06
1.1907e-06
1.19071e-06
1.18925e-06
1.18756e-06
1.18756e-06
1.18756e-06
1.18756e-06
1.18756e-06
1.18756e-06
1.18756e-06
1.18938e-06
1.18985e-06
1.19077e-06
1.18963e-06
1.18756e-06
1.18756e-06
1.18756e-06
1.18756e-06
1.18756e-06
1.18756e-06
1.18756e-06
1.18756e-06
1.18756e-06
1.18985e-06
1.19087e-06
1.18955e-06
1.18756e-06
1.18756e-06
1.18756e-06
1.18756e-06
1.18756e-06
1.18756e-06
1.18756e-06
1.18756e-06
1.18756e-06
1.18982e-06
1.19085e-06
1.1896e-06
1.18756e-06
1.18756e-06
1.18756e-06
1.18756e-06
1.18756e-06
1.18756e-06
1.18756e-06
1.18756e-06
1.18756e-06
1.18983e-06
1.19085e-06
1.19065e-06
1.18938e-06
1.18756e-06
1.18756e-06
1.18756e-06
1.18756e-06
1.18756e-06
1.18756e-06
1.18756e-06
1.18956e-06
1.18987e-06
1.19088e-06
1.19074e-06
1.18977e-06
1.18936e-06
1.18756e-06
1.18756e-06
1.18756e-06
1.18756e-06
1.18756e-06
1.18952e-06
1.18977e-06
1.18995e-06
1.19069e-06
1.18977e-06
1.18938e-06
1.18756e-06
1.18756e-06
1.18756e-06
1.18956e-06
1.18977e-06
1.18992e-06
1.19087e-06
1.1907e-06
1.18985e-06
1.18985e-06
1.18982e-06
1.18983e-06
1.18987e-06
1.18995e-06
1.19087e-06
1.19077e-06
1.19087e-06
1.19085e-06
1.19085e-06
1.19088e-06
1.17947e-06
1.17839e-06
1.17831e-06
1.17836e-06
1.17941e-06
1.1795e-06
1.17952e-06
1.17854e-06
1.17801e-06
1.17632e-06
1.17632e-06
1.17632e-06
1.17815e-06
1.17853e-06
1.17945e-06
1.17854e-06
1.17798e-06
1.17632e-06
1.17632e-06
1.17632e-06
1.17632e-06
1.17632e-06
1.17812e-06
1.17853e-06
1.17946e-06
1.17947e-06
1.17801e-06
1.17632e-06
1.17632e-06
1.17632e-06
1.17632e-06
1.17632e-06
1.17632e-06
1.17632e-06
1.17814e-06
1.17861e-06
1.17953e-06
1.17839e-06
1.17632e-06
1.17632e-06
1.17632e-06
1.17632e-06
1.17632e-06
1.17632e-06
1.17632e-06
1.17632e-06
1.17632e-06
1.17861e-06
1.17963e-06
1.17831e-06
1.17632e-06
1.17632e-06
1.17632e-06
1.17632e-06
1.17632e-06
1.17632e-06
1.17632e-06
1.17632e-06
1.17632e-06
1.17858e-06
1.17961e-06
1.17836e-06
1.17632e-06
1.17632e-06
1.17632e-06
1.17632e-06
1.17632e-06
1.17632e-06
1.17632e-06
1.17632e-06
1.17632e-06
1.17859e-06
1.17962e-06
1.17941e-06
1.17815e-06
1.17632e-06
1.17632e-06
1.17632e-06
1.17632e-06
1.17632e-06
1.17632e-06
1.17632e-06
1.17832e-06
1.17863e-06
1.17964e-06
1.1795e-06
1.17853e-06
1.17812e-06
1.17632e-06
1.17632e-06
1.17632e-06
1.17632e-06
1.17632e-06
1.17829e-06
1.17854e-06
1.17871e-06
1.17945e-06
1.17853e-06
1.17814e-06
1.17632e-06
1.17632e-06
1.17632e-06
1.17832e-06
1.17854e-06
1.17869e-06
1.17963e-06
1.17946e-06
1.17861e-06
1.17861e-06
1.17858e-06
1.17859e-06
1.17863e-06
1.17871e-06
1.17963e-06
1.17953e-06
1.17963e-06
1.17961e-06
1.17962e-06
1.17964e-06
1.16823e-06
1.16715e-06
1.16707e-06
1.16713e-06
1.16817e-06
1.16826e-06
1.16828e-06
1.1673e-06
1.16677e-06
1.16508e-06
1.16508e-06
1.16508e-06
1.16691e-06
1.16729e-06
1.16822e-06
1.1673e-06
1.16674e-06
1.16508e-06
1.16508e-06
1.16508e-06
1.16508e-06
1.16508e-06
1.16688e-06
1.16729e-06
1.16822e-06
1.16823e-06
1.16677e-06
1.16508e-06
1.16508e-06
1.16508e-06
1.16508e-06
1.16508e-06
1.16508e-06
1.16508e-06
1.1669e-06
1.16737e-06
1.16829e-06
1.16715e-06
1.16508e-06
1.16508e-06
1.16508e-06
1.16508e-06
1.16508e-06
1.16508e-06
1.16508e-06
1.16508e-06
1.16508e-06
1.16737e-06
1.16839e-06
1.16708e-06
1.16508e-06
1.16508e-06
1.16508e-06
1.16508e-06
1.16508e-06
1.16508e-06
1.16508e-06
1.16508e-06
1.16508e-06
1.16734e-06
1.16837e-06
1.16713e-06
1.16508e-06
1.16508e-06
1.16508e-06
1.16508e-06
1.16508e-06
1.16508e-06
1.16508e-06
1.16508e-06
1.16508e-06
1.16736e-06
1.16838e-06
1.16817e-06
1.16691e-06
1.16508e-06
1.16508e-06
1.16508e-06
1.16508e-06
1.16508e-06
1.16508e-06
1.16508e-06
1.16708e-06
1.1674e-06
1.1684e-06
1.16826e-06
1.16729e-06
1.16688e-06
1.16508e-06
1.16508e-06
1.16508e-06
1.16508e-06
1.16508e-06
1.16705e-06
1.1673e-06
1.16747e-06
1.16821e-06
1.16729e-06
1.1669e-06
1.16508e-06
1.16508e-06
1.16508e-06
1.16708e-06
1.1673e-06
1.16745e-06
1.1684e-06
1.16822e-06
1.16737e-06
1.16737e-06
1.16734e-06
1.16736e-06
1.16739e-06
1.16747e-06
1.1684e-06
1.16829e-06
1.16839e-06
1.16837e-06
1.16838e-06
1.1684e-06
1.157e-06
1.15591e-06
1.15584e-06
1.15589e-06
1.15694e-06
1.15702e-06
1.15705e-06
1.15607e-06
1.15553e-06
1.15384e-06
1.15384e-06
1.15384e-06
1.15567e-06
1.15605e-06
1.15698e-06
1.15607e-06
1.1555e-06
1.15384e-06
1.15384e-06
1.15384e-06
1.15384e-06
1.15384e-06
1.15564e-06
1.15605e-06
1.15698e-06
1.157e-06
1.15553e-06
1.15384e-06
1.15384e-06
1.15384e-06
1.15384e-06
1.15384e-06
1.15384e-06
1.15384e-06
1.15567e-06
1.15613e-06
1.15706e-06
1.15591e-06
1.15384e-06
1.15384e-06
1.15384e-06
1.15384e-06
1.15384e-06
1.15384e-06
1.15384e-06
1.15384e-06
1.15384e-06
1.15613e-06
1.15715e-06
1.15584e-06
1.15384e-06
1.15384e-06
1.15384e-06
1.15384e-06
1.15384e-06
1.15384e-06
1.15384e-06
1.15384e-06
1.15384e-06
1.1561e-06
1.15714e-06
1.15589e-06
1.15384e-06
1.15384e-06
1.15384e-06
1.15384e-06
1.15384e-06
1.15384e-06
1.15384e-06
1.15384e-06
1.15384e-06
1.15612e-06
1.15714e-06
1.15694e-06
1.15567e-06
1.15384e-06
1.15384e-06
1.15384e-06
1.15384e-06
1.15384e-06
1.15384e-06
1.15384e-06
1.15585e-06
1.15616e-06
1.15716e-06
1.15702e-06
1.15605e-06
1.15564e-06
1.15384e-06
1.15384e-06
1.15384e-06
1.15384e-06
1.15384e-06
1.15581e-06
1.15606e-06
1.15624e-06
1.15698e-06
1.15605e-06
1.15567e-06
1.15384e-06
1.15384e-06
1.15384e-06
1.15585e-06
1.15606e-06
1.15621e-06
1.15716e-06
1.15698e-06
1.15613e-06
1.15613e-06
1.1561e-06
1.15612e-06
1.15616e-06
1.15624e-06
1.15716e-06
1.15706e-06
1.15715e-06
1.15714e-06
1.15714e-06
1.15716e-06
1.14576e-06
1.14467e-06
1.1446e-06
1.14465e-06
1.1457e-06
1.14578e-06
1.14581e-06
1.14483e-06
1.14429e-06
1.1426e-06
1.1426e-06
1.1426e-06
1.14443e-06
1.14481e-06
1.14574e-06
1.14483e-06
1.14426e-06
1.1426e-06
1.1426e-06
1.1426e-06
1.1426e-06
1.1426e-06
1.1444e-06
1.14481e-06
1.14574e-06
1.14576e-06
1.14429e-06
1.1426e-06
1.1426e-06
1.1426e-06
1.1426e-06
1.1426e-06
1.1426e-06
1.1426e-06
1.14443e-06
1.1449e-06
1.14582e-06
1.14467e-06
1.1426e-06
1.1426e-06
1.1426e-06
1.1426e-06
1.1426e-06
1.1426e-06
1.1426e-06
1.1426e-06
1.1426e-06
1.14489e-06
1.14591e-06
1.1446e-06
1.1426e-06
1.1426e-06
1.1426e-06
1.1426e-06
1.1426e-06
1.1426e-06
1.1426e-06
1.1426e-06
1.1426e-06
1.14487e-06
1.1459e-06
1.14465e-06
1.1426e-06
1.1426e-06
1.1426e-06
1.1426e-06
1.1426e-06
1.1426e-06
1.1426e-06
1.1426e-06
1.1426e-06
1.14488e-06
1.1459e-06
1.1457e-06
1.14443e-06
1.1426e-06
1.1426e-06
1.1426e-06
1.1426e-06
1.1426e-06
1.1426e-06
1.1426e-06
1.14461e-06
1.14492e-06
1.14593e-06
1.14578e-06
1.14481e-06
1.1444e-06
1.1426e-06
1.1426e-06
1.1426e-06
1.1426e-06
1.1426e-06
1.14457e-06
1.14482e-06
1.145e-06
1.14574e-06
1.14481e-06
1.14443e-06
1.1426e-06
1.1426e-06
1.1426e-06
1.14461e-06
1.14482e-06
1.14497e-06
1.14592e-06
1.14574e-06
1.1449e-06
1.14489e-06
1.14487e-06
1.14488e-06
1.14492e-06
1.145e-06
1.14592e-06
1.14582e-06
1.14591e-06
1.1459e-06
1.1459e-06
1.14593e-06
1.13452e-06
1.13344e-06
1.13336e-06
1.13341e-06
1.13446e-06
1.13454e-06
1.13457e-06
1.13359e-06
1.13305e-06
1.13136e-06
1.13136e-06
1.13136e-06
1.13319e-06
1.13357e-06
1.1345e-06
1.13359e-06
1.13302e-06
1.13136e-06
1.13136e-06
1.13136e-06
1.13136e-06
1.13136e-06
1.13316e-06
1.13357e-06
1.1345e-06
1.13452e-06
1.13305e-06
1.13136e-06
1.13136e-06
1.13136e-06
1.13136e-06
1.13136e-06
1.13136e-06
1.13136e-06
1.13319e-06
1.13366e-06
1.13458e-06
1.13344e-06
1.13136e-06
1.13136e-06
1.13136e-06
1.13136e-06
1.13136e-06
1.13136e-06
1.13136e-06
1.13136e-06
1.13136e-06
1.13365e-06
1.13467e-06
1.13336e-06
1.13136e-06
1.13136e-06
1.13136e-06
1.13136e-06
1.13136e-06
1.13136e-06
1.13136e-06
1.13136e-06
1.13136e-06
1.13363e-06
1.13466e-06
1.13341e-06
1.13136e-06
1.13136e-06
1.13136e-06
1.13136e-06
1.13136e-06
1.13136e-06
1.13136e-06
1.13136e-06
1.13136e-06
1.13364e-06
1.13466e-06
1.13446e-06
1.13319e-06
1.13136e-06
1.13136e-06
1.13136e-06
1.13136e-06
1.13136e-06
1.13136e-06
1.13136e-06
1.13337e-06
1.13368e-06
1.13469e-06
1.13454e-06
1.13358e-06
1.13316e-06
1.13136e-06
1.13136e-06
1.13136e-06
1.13136e-06
1.13136e-06
1.13333e-06
1.13358e-06
1.13376e-06
1.1345e-06
1.13357e-06
1.13319e-06
1.13136e-06
1.13136e-06
1.13136e-06
1.13337e-06
1.13358e-06
1.13373e-06
1.13468e-06
1.1345e-06
1.13366e-06
1.13365e-06
1.13363e-06
1.13364e-06
1.13368e-06
1.13376e-06
1.13468e-06
1.13458e-06
1.13467e-06
1.13466e-06
1.13466e-06
1.13469e-06
1.12328e-06
1.1222e-06
1.12212e-06
1.12217e-06
1.12322e-06
1.12331e-06
1.12333e-06
1.12235e-06
1.12181e-06
1.12012e-06
1.12012e-06
1.12012e-06
1.12195e-06
1.12234e-06
1.12326e-06
1.12235e-06
1.12178e-06
1.12012e-06
1.12012e-06
1.12012e-06
1.12012e-06
1.12012e-06
1.12192e-06
1.12233e-06
1.12326e-06
1.12328e-06
1.12181e-06
1.12012e-06
1.12012e-06
1.12012e-06
1.12012e-06
1.12012e-06
1.12012e-06
1.12012e-06
1.12195e-06
1.12242e-06
1.12334e-06
1.1222e-06
1.12012e-06
1.12012e-06
1.12012e-06
1.12012e-06
1.12012e-06
1.12012e-06
1.12012e-06
1.12012e-06
1.12012e-06
1.12241e-06
1.12343e-06
1.12212e-06
1.12012e-06
1.12012e-06
1.12012e-06
1.12012e-06
1.12012e-06
1.12012e-06
1.12012e-06
1.12012e-06
1.12012e-06
1.12239e-06
1.12342e-06
1.12217e-06
1.12012e-06
1.12012e-06
1.12012e-06
1.12012e-06
1.12012e-06
1.12012e-06
1.12012e-06
1.12012e-06
1.12012e-06
1.1224e-06
1.12342e-06
1.12322e-06
1.12195e-06
1.12012e-06
1.12012e-06
1.12012e-06
1.12012e-06
1.12012e-06
1.12012e-06
1.12012e-06
1.12213e-06
1.12244e-06
1.12345e-06
1.12331e-06
1.12234e-06
1.12192e-06
1.12012e-06
1.12012e-06
1.12012e-06
1.12012e-06
1.12012e-06
1.12209e-06
1.12234e-06
1.12252e-06
1.12326e-06
1.12233e-06
1.12195e-06
1.12012e-06
1.12012e-06
1.12012e-06
1.12213e-06
1.12234e-06
1.12249e-06
1.12344e-06
1.12326e-06
1.12242e-06
1.12241e-06
1.12239e-06
1.1224e-06
1.12244e-06
1.12252e-06
1.12344e-06
1.12334e-06
1.12343e-06
1.12342e-06
1.12342e-06
1.12345e-06
1.11204e-06
1.11096e-06
1.11088e-06
1.11093e-06
1.11198e-06
1.11207e-06
1.11209e-06
1.11111e-06
1.11058e-06
1.10888e-06
1.10888e-06
1.10888e-06
1.11071e-06
1.1111e-06
1.11202e-06
1.11111e-06
1.11054e-06
1.10888e-06
1.10888e-06
1.10888e-06
1.10888e-06
1.10888e-06
1.11069e-06
1.11109e-06
1.11203e-06
1.11204e-06
1.11058e-06
1.10888e-06
1.10888e-06
1.10888e-06
1.10888e-06
1.10888e-06
1.10888e-06
1.10888e-06
1.11071e-06
1.11118e-06
1.1121e-06
1.11096e-06
1.10888e-06
1.10888e-06
1.10888e-06
1.10888e-06
1.10888e-06
1.10888e-06
1.10888e-06
1.10888e-06
1.10888e-06
1.11118e-06
1.11219e-06
1.11088e-06
1.10888e-06
1.10888e-06
1.10888e-06
1.10888e-06
1.10888e-06
1.10888e-06
1.10888e-06
1.10888e-06
1.10888e-06
1.11115e-06
1.11218e-06
1.11093e-06
1.10888e-06
1.10888e-06
1.10888e-06
1.10888e-06
1.10888e-06
1.10888e-06
1.10888e-06
1.10888e-06
1.10888e-06
1.11116e-06
1.11218e-06
1.11198e-06
1.11071e-06