/*--------------------------------*- C++ -*----------------------------------*\
| =========                 |                                                 |
| \\      /  F ield         | OpenFOAM: The Open Source CFD Toolbox           |
|  \\    /   O peration     | Version:  v2012                                 |
|   \\  /    A nd           | Website:  www.openfoam.com                      |
|    \\/     M anipulation  |                                                 |
\*---------------------------------------------------------------------------*/
FoamFile
{
    version     2.0;
    format      ascii;
    class       volScalarField;
    location    "31";
    object      p;
}
// * * * * * * * * * * * * * * * * * * * * * * * * * * * * * * * * * * * * * //

dimensions      [0 2 -2 0 0 0 0];


internalField   nonuniform List<scalar> 
292667
(
1.41092e-06
1.40039e-06
1.39948e-06
1.39957e-06
1.40084e-06
1.41189e-06
1.4006e-06
1.39739e-06
1.39554e-06
1.39478e-06
1.39488e-06
1.39587e-06
1.39802e-06
1.40155e-06
1.4006e-06
1.39644e-06
1.3939e-06
1.39251e-06
1.39193e-06
1.39201e-06
1.39277e-06
1.39439e-06
1.39728e-06
1.40184e-06
1.41092e-06
1.39739e-06
1.3939e-06
1.39186e-06
1.39072e-06
1.39023e-06
1.39029e-06
1.39093e-06
1.39226e-06
1.39459e-06
1.39853e-06
1.41092e-06
1.40039e-06
1.39554e-06
1.39251e-06
1.39072e-06
1.3897e-06
1.38926e-06
1.38932e-06
1.38989e-06
1.39108e-06
1.39312e-06
1.39656e-06
1.40471e-06
1.39948e-06
1.39478e-06
1.39193e-06
1.39023e-06
1.38926e-06
1.38883e-06
1.38889e-06
1.38944e-06
1.39057e-06
1.39251e-06
1.39576e-06
1.40272e-06
1.39957e-06
1.39488e-06
1.39201e-06
1.39029e-06
1.38932e-06
1.38889e-06
1.38895e-06
1.38951e-06
1.39064e-06
1.39259e-06
1.39587e-06
1.40307e-06
1.40084e-06
1.39587e-06
1.39277e-06
1.39093e-06
1.38989e-06
1.38944e-06
1.38951e-06
1.39009e-06
1.3913e-06
1.3934e-06
1.39694e-06
1.40507e-06
1.41189e-06
1.39802e-06
1.39439e-06
1.39226e-06
1.39108e-06
1.39057e-06
1.39064e-06
1.3913e-06
1.39269e-06
1.39513e-06
1.39921e-06
1.41096e-06
1.40155e-06
1.39728e-06
1.39459e-06
1.39312e-06
1.39251e-06
1.39259e-06
1.3934e-06
1.39513e-06
1.3982e-06
1.40559e-06
1.40184e-06
1.39853e-06
1.39656e-06
1.39576e-06
1.39587e-06
1.39694e-06
1.39921e-06
1.40559e-06
1.41092e-06
1.40471e-06
1.40272e-06
1.40307e-06
1.40507e-06
1.41096e-06
1.38029e-06
1.3791e-06
1.37908e-06
1.37911e-06
1.38016e-06
1.38013e-06
1.38037e-06
1.37942e-06
1.37898e-06
1.3772e-06
1.37717e-06
1.3772e-06
1.3791e-06
1.37939e-06
1.38031e-06
1.37942e-06
1.379e-06
1.37726e-06
1.37716e-06
1.37721e-06
1.37716e-06
1.37725e-06
1.37907e-06
1.37936e-06
1.38028e-06
1.38029e-06
1.37898e-06
1.37725e-06
1.37717e-06
1.37722e-06
1.37721e-06
1.37722e-06
1.37717e-06
1.37726e-06
1.37905e-06
1.37938e-06
1.3804e-06
1.3791e-06
1.3772e-06
1.37716e-06
1.37722e-06
1.37718e-06
1.37718e-06
1.37718e-06
1.37722e-06
1.37716e-06
1.3772e-06
1.37946e-06
1.38045e-06
1.37908e-06
1.37717e-06
1.37721e-06
1.37721e-06
1.37718e-06
1.37717e-06
1.37718e-06
1.37721e-06
1.37721e-06
1.37717e-06
1.37945e-06
1.38026e-06
1.37911e-06
1.3772e-06
1.37716e-06
1.37722e-06
1.37718e-06
1.37718e-06
1.37718e-06
1.37722e-06
1.37716e-06
1.3772e-06
1.37947e-06
1.38031e-06
1.38016e-06
1.3791e-06
1.37725e-06
1.37717e-06
1.37722e-06
1.37721e-06
1.37722e-06
1.37717e-06
1.37725e-06
1.37916e-06
1.3794e-06
1.38044e-06
1.38013e-06
1.37939e-06
1.37907e-06
1.37726e-06
1.37716e-06
1.37721e-06
1.37716e-06
1.37725e-06
1.37913e-06
1.37935e-06
1.37944e-06
1.38031e-06
1.37936e-06
1.37905e-06
1.3772e-06
1.37717e-06
1.3772e-06
1.37916e-06
1.37935e-06
1.37951e-06
1.38044e-06
1.38028e-06
1.37938e-06
1.37946e-06
1.37945e-06
1.37947e-06
1.37941e-06
1.37944e-06
1.38045e-06
1.3804e-06
1.38045e-06
1.38026e-06
1.38031e-06
1.38044e-06
1.36851e-06
1.36739e-06
1.36731e-06
1.36736e-06
1.36844e-06
1.36853e-06
1.36857e-06
1.36756e-06
1.36706e-06
1.3653e-06
1.36529e-06
1.3653e-06
1.36719e-06
1.36755e-06
1.36848e-06
1.36756e-06
1.36706e-06
1.36536e-06
1.36535e-06
1.36539e-06
1.36535e-06
1.36536e-06
1.36719e-06
1.36754e-06
1.36848e-06
1.36851e-06
1.36706e-06
1.36536e-06
1.36536e-06
1.36543e-06
1.36543e-06
1.36543e-06
1.36536e-06
1.36536e-06
1.36718e-06
1.3676e-06
1.36857e-06
1.36739e-06
1.3653e-06
1.36535e-06
1.36543e-06
1.36545e-06
1.36546e-06
1.36545e-06
1.36543e-06
1.36535e-06
1.3653e-06
1.36761e-06
1.36866e-06
1.36731e-06
1.36529e-06
1.36539e-06
1.36543e-06
1.36546e-06
1.36548e-06
1.36546e-06
1.36543e-06
1.36539e-06
1.36529e-06
1.36759e-06
1.36864e-06
1.36736e-06
1.3653e-06
1.36535e-06
1.36543e-06
1.36545e-06
1.36546e-06
1.36545e-06
1.36543e-06
1.36535e-06
1.3653e-06
1.3676e-06
1.36864e-06
1.36844e-06
1.36719e-06
1.36536e-06
1.36536e-06
1.36543e-06
1.36543e-06
1.36543e-06
1.36536e-06
1.36536e-06
1.36733e-06
1.36762e-06
1.36867e-06
1.36853e-06
1.36755e-06
1.36719e-06
1.36536e-06
1.36535e-06
1.36539e-06
1.36535e-06
1.36536e-06
1.3673e-06
1.36752e-06
1.36768e-06
1.36848e-06
1.36754e-06
1.36718e-06
1.3653e-06
1.36529e-06
1.3653e-06
1.36733e-06
1.36752e-06
1.36766e-06
1.36866e-06
1.36848e-06
1.3676e-06
1.36761e-06
1.36759e-06
1.3676e-06
1.36762e-06
1.36768e-06
1.36866e-06
1.36857e-06
1.36866e-06
1.36864e-06
1.36864e-06
1.36868e-06
1.35682e-06
1.35568e-06
1.3556e-06
1.35565e-06
1.35675e-06
1.35685e-06
1.35688e-06
1.35585e-06
1.35531e-06
1.35354e-06
1.35354e-06
1.35354e-06
1.35544e-06
1.35583e-06
1.35679e-06
1.35585e-06
1.35529e-06
1.35357e-06
1.35358e-06
1.3536e-06
1.35358e-06
1.35357e-06
1.35543e-06
1.35583e-06
1.3568e-06
1.35682e-06
1.35531e-06
1.35357e-06
1.35359e-06
1.35364e-06
1.35364e-06
1.35364e-06
1.35359e-06
1.35357e-06
1.35544e-06
1.3559e-06
1.35689e-06
1.35568e-06
1.35354e-06
1.35358e-06
1.35364e-06
1.35366e-06
1.35367e-06
1.35366e-06
1.35364e-06
1.35358e-06
1.35354e-06
1.35589e-06
1.35697e-06
1.3556e-06
1.35354e-06
1.3536e-06
1.35364e-06
1.35367e-06
1.35368e-06
1.35367e-06
1.35364e-06
1.3536e-06
1.35354e-06
1.35587e-06
1.35695e-06
1.35565e-06
1.35354e-06
1.35358e-06
1.35364e-06
1.35366e-06
1.35367e-06
1.35366e-06
1.35364e-06
1.35358e-06
1.35354e-06
1.35588e-06
1.35695e-06
1.35675e-06
1.35544e-06
1.35357e-06
1.35359e-06
1.35364e-06
1.35364e-06
1.35364e-06
1.35359e-06
1.35357e-06
1.3556e-06
1.35592e-06
1.35699e-06
1.35685e-06
1.35583e-06
1.35543e-06
1.35357e-06
1.35358e-06
1.3536e-06
1.35358e-06
1.35357e-06
1.35557e-06
1.35582e-06
1.35599e-06
1.35679e-06
1.35583e-06
1.35544e-06
1.35354e-06
1.35354e-06
1.35354e-06
1.3556e-06
1.35582e-06
1.35597e-06
1.35698e-06
1.3568e-06
1.3559e-06
1.35589e-06
1.35587e-06
1.35588e-06
1.35592e-06
1.356e-06
1.35698e-06
1.35689e-06
1.35697e-06
1.35695e-06
1.35695e-06
1.35699e-06
1.34513e-06
1.34398e-06
1.3439e-06
1.34395e-06
1.34505e-06
1.34515e-06
1.34518e-06
1.34414e-06
1.3436e-06
1.34182e-06
1.34182e-06
1.34182e-06
1.34373e-06
1.34413e-06
1.3451e-06
1.34414e-06
1.34357e-06
1.34183e-06
1.34184e-06
1.34185e-06
1.34184e-06
1.34183e-06
1.34371e-06
1.34412e-06
1.3451e-06
1.34513e-06
1.3436e-06
1.34183e-06
1.34185e-06
1.34188e-06
1.34188e-06
1.34188e-06
1.34185e-06
1.34183e-06
1.34373e-06
1.3442e-06
1.34519e-06
1.34398e-06
1.34182e-06
1.34184e-06
1.34188e-06
1.34189e-06
1.3419e-06
1.34189e-06
1.34188e-06
1.34184e-06
1.34182e-06
1.34419e-06
1.34527e-06
1.3439e-06
1.34182e-06
1.34185e-06
1.34188e-06
1.3419e-06
1.34191e-06
1.3419e-06
1.34188e-06
1.34185e-06
1.34182e-06
1.34416e-06
1.34525e-06
1.34395e-06
1.34182e-06
1.34184e-06
1.34188e-06
1.34189e-06
1.3419e-06
1.34189e-06
1.34188e-06
1.34184e-06
1.34182e-06
1.34417e-06
1.34525e-06
1.34505e-06
1.34373e-06
1.34183e-06
1.34185e-06
1.34188e-06
1.34188e-06
1.34188e-06
1.34185e-06
1.34183e-06
1.34389e-06
1.34422e-06
1.34529e-06
1.34515e-06
1.34413e-06
1.34371e-06
1.34183e-06
1.34184e-06
1.34185e-06
1.34184e-06
1.34183e-06
1.34386e-06
1.34411e-06
1.3443e-06
1.3451e-06
1.34412e-06
1.34373e-06
1.34182e-06
1.34182e-06
1.34182e-06
1.34389e-06
1.34412e-06
1.34427e-06
1.34528e-06
1.3451e-06
1.3442e-06
1.34419e-06
1.34416e-06
1.34418e-06
1.34422e-06
1.3443e-06
1.34528e-06
1.34519e-06
1.34527e-06
1.34525e-06
1.34525e-06
1.34529e-06
1.33343e-06
1.33228e-06
1.3322e-06
1.33225e-06
1.33336e-06
1.33345e-06
1.33349e-06
1.33244e-06
1.33189e-06
1.33011e-06
1.33011e-06
1.33011e-06
1.33202e-06
1.33242e-06
1.3334e-06
1.33244e-06
1.33187e-06
1.33011e-06
1.33012e-06
1.33013e-06
1.33012e-06
1.33011e-06
1.332e-06
1.33242e-06
1.33341e-06
1.33343e-06
1.33189e-06
1.33011e-06
1.33013e-06
1.33014e-06
1.33014e-06
1.33014e-06
1.33013e-06
1.33011e-06
1.33202e-06
1.3325e-06
1.33349e-06
1.33228e-06
1.33011e-06
1.33012e-06
1.33014e-06
1.33015e-06
1.33016e-06
1.33015e-06
1.33014e-06
1.33012e-06
1.33011e-06
1.33249e-06
1.33357e-06
1.3322e-06
1.33011e-06
1.33013e-06
1.33014e-06
1.33016e-06
1.33016e-06
1.33016e-06
1.33014e-06
1.33013e-06
1.33011e-06
1.33246e-06
1.33355e-06
1.33225e-06
1.33011e-06
1.33012e-06
1.33014e-06
1.33015e-06
1.33016e-06
1.33015e-06
1.33014e-06
1.33012e-06
1.33011e-06
1.33247e-06
1.33356e-06
1.33336e-06
1.33202e-06
1.33011e-06
1.33013e-06
1.33014e-06
1.33014e-06
1.33014e-06
1.33013e-06
1.33011e-06
1.33219e-06
1.33252e-06
1.33359e-06
1.33345e-06
1.33242e-06
1.332e-06
1.33011e-06
1.33012e-06
1.33013e-06
1.33012e-06
1.33011e-06
1.33215e-06
1.33241e-06
1.3326e-06
1.3334e-06
1.33242e-06
1.33202e-06
1.33011e-06
1.33011e-06
1.33011e-06
1.33219e-06
1.33241e-06
1.33258e-06
1.33359e-06
1.33341e-06
1.3325e-06
1.33249e-06
1.33246e-06
1.33247e-06
1.33252e-06
1.3326e-06
1.33359e-06
1.33349e-06
1.33357e-06
1.33355e-06
1.33356e-06
1.33359e-06
1.32173e-06
1.32058e-06
1.3205e-06
1.32055e-06
1.32166e-06
1.32175e-06
1.32179e-06
1.32074e-06
1.32019e-06
1.3184e-06
1.3184e-06
1.3184e-06
1.32032e-06
1.32072e-06
1.3217e-06
1.32074e-06
1.32016e-06
1.3184e-06
1.31841e-06
1.31841e-06
1.31841e-06
1.3184e-06
1.32029e-06
1.32072e-06
1.32171e-06
1.32173e-06
1.32019e-06
1.3184e-06
1.31841e-06
1.31842e-06
1.31842e-06
1.31842e-06
1.31841e-06
1.3184e-06
1.32032e-06
1.3208e-06
1.32179e-06
1.32058e-06
1.3184e-06
1.31841e-06
1.31842e-06
1.31843e-06
1.31843e-06
1.31843e-06
1.31842e-06
1.31841e-06
1.3184e-06
1.32079e-06
1.32187e-06
1.3205e-06
1.3184e-06
1.31841e-06
1.31842e-06
1.31843e-06
1.31843e-06
1.31843e-06
1.31842e-06
1.31841e-06
1.3184e-06
1.32076e-06
1.32185e-06
1.32055e-06
1.3184e-06
1.31841e-06
1.31842e-06
1.31843e-06
1.31843e-06
1.31843e-06
1.31842e-06
1.31841e-06
1.3184e-06
1.32077e-06
1.32186e-06
1.32166e-06
1.32032e-06
1.3184e-06
1.31841e-06
1.31842e-06
1.31842e-06
1.31842e-06
1.31841e-06
1.3184e-06
1.32049e-06
1.32082e-06
1.32189e-06
1.32175e-06
1.32072e-06
1.32029e-06
1.3184e-06
1.31841e-06
1.31841e-06
1.31841e-06
1.3184e-06
1.32045e-06
1.32071e-06
1.3209e-06
1.3217e-06
1.32072e-06
1.32032e-06
1.3184e-06
1.3184e-06
1.3184e-06
1.32049e-06
1.32071e-06
1.32088e-06
1.32189e-06
1.32171e-06
1.3208e-06
1.32079e-06
1.32076e-06
1.32077e-06
1.32082e-06
1.3209e-06
1.32189e-06
1.32179e-06
1.32187e-06
1.32185e-06
1.32186e-06
1.32189e-06
1.31003e-06
1.30888e-06
1.3088e-06
1.30885e-06
1.30995e-06
1.31005e-06
1.31009e-06
1.30904e-06
1.30849e-06
1.3067e-06
1.3067e-06
1.3067e-06
1.30862e-06
1.30902e-06
1.31e-06
1.30904e-06
1.30846e-06
1.3067e-06
1.3067e-06
1.3067e-06
1.3067e-06
1.3067e-06
1.30859e-06
1.30902e-06
1.31001e-06
1.31003e-06
1.30849e-06
1.3067e-06
1.3067e-06
1.30671e-06
1.30671e-06
1.30671e-06
1.3067e-06
1.3067e-06
1.30861e-06
1.3091e-06
1.31009e-06
1.30888e-06
1.3067e-06
1.3067e-06
1.30671e-06
1.30671e-06
1.30671e-06
1.30671e-06
1.30671e-06
1.3067e-06
1.3067e-06
1.30909e-06
1.31017e-06
1.3088e-06
1.3067e-06
1.3067e-06
1.30671e-06
1.30671e-06
1.30671e-06
1.30671e-06
1.30671e-06
1.3067e-06
1.3067e-06
1.30906e-06
1.31015e-06
1.30885e-06
1.3067e-06
1.3067e-06
1.30671e-06
1.30671e-06
1.30671e-06
1.30671e-06
1.30671e-06
1.3067e-06
1.3067e-06
1.30907e-06
1.31016e-06
1.30995e-06
1.30862e-06
1.3067e-06
1.3067e-06
1.30671e-06
1.30671e-06
1.30671e-06
1.3067e-06
1.3067e-06
1.30878e-06
1.30912e-06
1.31019e-06
1.31005e-06
1.30902e-06
1.30859e-06
1.3067e-06
1.3067e-06
1.3067e-06
1.3067e-06
1.3067e-06
1.30875e-06
1.30901e-06
1.3092e-06
1.31e-06
1.30902e-06
1.30862e-06
1.3067e-06
1.3067e-06
1.3067e-06
1.30878e-06
1.30901e-06
1.30918e-06
1.31019e-06
1.31001e-06
1.3091e-06
1.30909e-06
1.30906e-06
1.30907e-06
1.30912e-06
1.3092e-06
1.31019e-06
1.31009e-06
1.31017e-06
1.31015e-06
1.31016e-06
1.31019e-06
1.29833e-06
1.29718e-06
1.2971e-06
1.29715e-06
1.29825e-06
1.29835e-06
1.29839e-06
1.29734e-06
1.29679e-06
1.295e-06
1.295e-06
1.295e-06
1.29692e-06
1.29732e-06
1.2983e-06
1.29734e-06
1.29676e-06
1.295e-06
1.295e-06
1.295e-06
1.295e-06
1.295e-06
1.29689e-06
1.29732e-06
1.2983e-06
1.29833e-06
1.29679e-06
1.295e-06
1.295e-06
1.295e-06
1.295e-06
1.295e-06
1.295e-06
1.295e-06
1.29691e-06
1.2974e-06
1.29839e-06
1.29718e-06
1.295e-06
1.295e-06
1.295e-06
1.295e-06
1.295e-06
1.295e-06
1.295e-06
1.295e-06
1.295e-06
1.29739e-06
1.29847e-06
1.2971e-06
1.295e-06
1.295e-06
1.295e-06
1.295e-06
1.295e-06
1.295e-06
1.295e-06
1.295e-06
1.295e-06
1.29736e-06
1.29845e-06
1.29715e-06
1.295e-06
1.295e-06
1.295e-06
1.295e-06
1.295e-06
1.295e-06
1.295e-06
1.295e-06
1.295e-06
1.29737e-06
1.29845e-06
1.29825e-06
1.29692e-06
1.295e-06
1.295e-06
1.295e-06
1.295e-06
1.295e-06
1.295e-06
1.295e-06
1.29708e-06
1.29742e-06
1.29849e-06
1.29835e-06
1.29732e-06
1.29689e-06
1.295e-06
1.295e-06
1.295e-06
1.295e-06
1.295e-06
1.29705e-06
1.29731e-06
1.2975e-06
1.2983e-06
1.29732e-06
1.29691e-06
1.295e-06
1.295e-06
1.295e-06
1.29708e-06
1.29731e-06
1.29748e-06
1.29849e-06
1.2983e-06
1.2974e-06
1.29739e-06
1.29736e-06
1.29737e-06
1.29742e-06
1.2975e-06
1.29849e-06
1.29839e-06
1.29847e-06
1.29845e-06
1.29845e-06
1.29849e-06
1.28663e-06
1.28548e-06
1.2854e-06
1.28545e-06
1.28655e-06
1.28665e-06
1.28668e-06
1.28564e-06
1.28509e-06
1.28329e-06
1.28329e-06
1.28329e-06
1.28522e-06
1.28562e-06
1.2866e-06
1.28564e-06
1.28506e-06
1.28329e-06
1.2833e-06
1.2833e-06
1.2833e-06
1.28329e-06
1.28519e-06
1.28561e-06
1.2866e-06
1.28663e-06
1.28509e-06
1.28329e-06
1.2833e-06
1.2833e-06
1.2833e-06
1.2833e-06
1.2833e-06
1.28329e-06
1.28521e-06
1.2857e-06
1.28669e-06
1.28548e-06
1.28329e-06
1.2833e-06
1.2833e-06
1.2833e-06
1.2833e-06
1.2833e-06
1.2833e-06
1.2833e-06
1.28329e-06
1.28568e-06
1.28677e-06
1.2854e-06
1.28329e-06
1.2833e-06
1.2833e-06
1.2833e-06
1.2833e-06
1.2833e-06
1.2833e-06
1.2833e-06
1.28329e-06
1.28565e-06
1.28675e-06
1.28545e-06
1.28329e-06
1.2833e-06
1.2833e-06
1.2833e-06
1.2833e-06
1.2833e-06
1.2833e-06
1.2833e-06
1.28329e-06
1.28567e-06
1.28675e-06
1.28655e-06
1.28522e-06
1.28329e-06
1.2833e-06
1.2833e-06
1.2833e-06
1.2833e-06
1.2833e-06
1.28329e-06
1.28538e-06
1.28572e-06
1.28679e-06
1.28665e-06
1.28562e-06
1.28519e-06
1.28329e-06
1.2833e-06
1.2833e-06
1.2833e-06
1.28329e-06
1.28534e-06
1.28561e-06
1.2858e-06
1.2866e-06
1.28561e-06
1.28521e-06
1.28329e-06
1.28329e-06
1.28329e-06
1.28538e-06
1.28561e-06
1.28577e-06
1.28679e-06
1.2866e-06
1.2857e-06
1.28568e-06
1.28565e-06
1.28567e-06
1.28572e-06
1.2858e-06
1.28679e-06
1.28669e-06
1.28677e-06
1.28675e-06
1.28675e-06
1.28679e-06
1.27493e-06
1.27378e-06
1.2737e-06
1.27375e-06
1.27485e-06
1.27495e-06
1.27498e-06
1.27394e-06
1.27339e-06
1.27159e-06
1.27159e-06
1.27159e-06
1.27352e-06
1.27392e-06
1.2749e-06
1.27394e-06
1.27335e-06
1.27159e-06
1.27159e-06
1.27159e-06
1.27159e-06
1.27159e-06
1.27349e-06
1.27391e-06
1.2749e-06
1.27493e-06
1.27339e-06
1.27159e-06
1.27159e-06
1.27159e-06
1.27159e-06
1.27159e-06
1.27159e-06
1.27159e-06
1.27351e-06
1.274e-06
1.27499e-06
1.27378e-06
1.27159e-06
1.27159e-06
1.27159e-06
1.27159e-06
1.27159e-06
1.27159e-06
1.27159e-06
1.27159e-06
1.27159e-06
1.27398e-06
1.27507e-06
1.2737e-06
1.27159e-06
1.27159e-06
1.27159e-06
1.27159e-06
1.2716e-06
1.27159e-06
1.27159e-06
1.27159e-06
1.27159e-06
1.27395e-06
1.27505e-06
1.27375e-06
1.27159e-06
1.27159e-06
1.27159e-06
1.27159e-06
1.27159e-06
1.27159e-06
1.27159e-06
1.27159e-06
1.27159e-06
1.27397e-06
1.27505e-06
1.27485e-06
1.27352e-06
1.27159e-06
1.27159e-06
1.27159e-06
1.27159e-06
1.27159e-06
1.27159e-06
1.27159e-06
1.27368e-06
1.27401e-06
1.27509e-06
1.27495e-06
1.27392e-06
1.27349e-06
1.27159e-06
1.27159e-06
1.27159e-06
1.27159e-06
1.27159e-06
1.27364e-06
1.27391e-06
1.2741e-06
1.2749e-06
1.27391e-06
1.27351e-06
1.27159e-06
1.27159e-06
1.27159e-06
1.27368e-06
1.27391e-06
1.27407e-06
1.27508e-06
1.2749e-06
1.274e-06
1.27398e-06
1.27395e-06
1.27397e-06
1.27401e-06
1.2741e-06
1.27508e-06
1.27499e-06
1.27507e-06
1.27505e-06
1.27505e-06
1.27509e-06
1.26323e-06
1.26208e-06
1.262e-06
1.26205e-06
1.26315e-06
1.26325e-06
1.26328e-06
1.26224e-06
1.26168e-06
1.25989e-06
1.25989e-06
1.25989e-06
1.26182e-06
1.26222e-06
1.2632e-06
1.26224e-06
1.26165e-06
1.25989e-06
1.25989e-06
1.25989e-06
1.25989e-06
1.25989e-06
1.26179e-06
1.26221e-06
1.2632e-06
1.26323e-06
1.26168e-06
1.25989e-06
1.25989e-06
1.25989e-06
1.25989e-06
1.25989e-06
1.25989e-06
1.25989e-06
1.26181e-06
1.2623e-06
1.26329e-06
1.26208e-06
1.25989e-06
1.25989e-06
1.25989e-06
1.25989e-06
1.25989e-06
1.25989e-06
1.25989e-06
1.25989e-06
1.25989e-06
1.26228e-06
1.26337e-06
1.262e-06
1.25989e-06
1.25989e-06
1.25989e-06
1.25989e-06
1.25989e-06
1.25989e-06
1.25989e-06
1.25989e-06
1.25989e-06
1.26225e-06
1.26335e-06
1.26205e-06
1.25989e-06
1.25989e-06
1.25989e-06
1.25989e-06
1.25989e-06
1.25989e-06
1.25989e-06
1.25989e-06
1.25989e-06
1.26227e-06
1.26335e-06
1.26315e-06
1.26182e-06
1.25989e-06
1.25989e-06
1.25989e-06
1.25989e-06
1.25989e-06
1.25989e-06
1.25989e-06
1.26198e-06
1.26231e-06
1.26339e-06
1.26325e-06
1.26222e-06
1.26179e-06
1.25989e-06
1.25989e-06
1.25989e-06
1.25989e-06
1.25989e-06
1.26194e-06
1.26221e-06
1.2624e-06
1.2632e-06
1.26221e-06
1.26181e-06
1.25989e-06
1.25989e-06
1.25989e-06
1.26198e-06
1.26221e-06
1.26237e-06
1.26338e-06
1.2632e-06
1.2623e-06
1.26228e-06
1.26225e-06
1.26227e-06
1.26231e-06
1.2624e-06
1.26338e-06
1.26329e-06
1.26337e-06
1.26335e-06
1.26335e-06
1.26339e-06
1.25152e-06
1.25037e-06
1.25029e-06
1.25035e-06
1.25145e-06
1.25155e-06
1.25158e-06
1.25054e-06
1.24998e-06
1.24819e-06
1.24819e-06
1.24819e-06
1.25011e-06
1.25052e-06
1.25149e-06
1.25054e-06
1.24995e-06
1.24819e-06
1.24819e-06
1.24819e-06
1.24819e-06
1.24819e-06
1.25009e-06
1.25051e-06
1.2515e-06
1.25152e-06
1.24998e-06
1.24819e-06
1.24819e-06
1.24819e-06
1.24819e-06
1.24819e-06
1.24819e-06
1.24819e-06
1.25011e-06
1.2506e-06
1.25159e-06
1.25037e-06
1.24819e-06
1.24819e-06
1.24819e-06
1.24819e-06
1.24819e-06
1.24819e-06
1.24819e-06
1.24819e-06
1.24819e-06
1.25058e-06
1.25167e-06
1.25029e-06
1.24819e-06
1.24819e-06
1.24819e-06
1.24819e-06
1.24819e-06
1.24819e-06
1.24819e-06
1.24819e-06
1.24819e-06
1.25055e-06
1.25165e-06
1.25035e-06
1.24819e-06
1.24819e-06
1.24819e-06
1.24819e-06
1.24819e-06
1.24819e-06
1.24819e-06
1.24819e-06
1.24819e-06
1.25056e-06
1.25165e-06
1.25145e-06
1.25011e-06
1.24819e-06
1.24819e-06
1.24819e-06
1.24819e-06
1.24819e-06
1.24819e-06
1.24819e-06
1.25028e-06
1.25061e-06
1.25169e-06
1.25155e-06
1.25052e-06
1.25009e-06
1.24819e-06
1.24819e-06
1.24819e-06
1.24819e-06
1.24819e-06
1.25024e-06
1.25051e-06
1.2507e-06
1.25149e-06
1.25051e-06
1.25011e-06
1.24819e-06
1.24819e-06
1.24819e-06
1.25028e-06
1.25051e-06
1.25067e-06
1.25168e-06
1.2515e-06
1.2506e-06
1.25058e-06
1.25055e-06
1.25056e-06
1.25061e-06
1.2507e-06
1.25168e-06
1.25159e-06
1.25167e-06
1.25165e-06
1.25165e-06
1.25169e-06
1.23982e-06
1.23867e-06
1.23859e-06
1.23864e-06
1.23975e-06
1.23985e-06
1.23988e-06
1.23883e-06
1.23828e-06
1.23649e-06
1.23649e-06
1.23649e-06
1.23841e-06
1.23881e-06
1.23979e-06
1.23883e-06
1.23825e-06
1.23649e-06
1.23649e-06
1.23649e-06
1.23649e-06
1.23649e-06
1.23838e-06
1.23881e-06
1.2398e-06
1.23982e-06
1.23828e-06
1.23649e-06
1.23649e-06
1.23649e-06
1.23649e-06
1.23649e-06
1.23649e-06
1.23649e-06
1.23841e-06
1.2389e-06
1.23989e-06
1.23867e-06
1.23649e-06
1.23649e-06
1.23649e-06
1.23649e-06
1.23649e-06
1.23649e-06
1.23649e-06
1.23649e-06
1.23649e-06
1.23888e-06
1.23997e-06
1.23859e-06
1.23649e-06
1.23649e-06
1.23649e-06
1.23649e-06
1.23649e-06
1.23649e-06
1.23649e-06
1.23649e-06
1.23649e-06
1.23885e-06
1.23995e-06
1.23864e-06
1.23649e-06
1.23649e-06
1.23649e-06
1.23649e-06
1.23649e-06
1.23649e-06
1.23649e-06
1.23649e-06
1.23649e-06
1.23886e-06
1.23995e-06
1.23975e-06
1.23841e-06
1.23649e-06
1.23649e-06
1.23649e-06
1.23649e-06
1.23649e-06
1.23649e-06
1.23649e-06
1.23858e-06
1.23891e-06
1.23999e-06
1.23985e-06
1.23881e-06
1.23838e-06
1.23649e-06
1.23649e-06
1.23649e-06
1.23649e-06
1.23649e-06
1.23854e-06
1.23881e-06
1.239e-06
1.23979e-06
1.23881e-06
1.23841e-06
1.23649e-06
1.23649e-06
1.23649e-06
1.23858e-06
1.23881e-06
1.23897e-06
1.23998e-06
1.2398e-06
1.2389e-06
1.23888e-06
1.23885e-06
1.23886e-06
1.23891e-06
1.239e-06
1.23998e-06
1.23989e-06
1.23997e-06
1.23995e-06
1.23995e-06
1.23999e-06
1.22812e-06
1.22697e-06
1.22689e-06
1.22694e-06
1.22805e-06
1.22815e-06
1.22818e-06
1.22713e-06
1.22658e-06
1.22479e-06
1.22479e-06
1.22479e-06
1.22671e-06
1.22711e-06
1.22809e-06
1.22713e-06
1.22655e-06
1.22479e-06
1.22479e-06
1.22479e-06
1.22479e-06
1.22479e-06
1.22668e-06
1.22711e-06
1.2281e-06
1.22812e-06
1.22658e-06
1.22479e-06
1.22479e-06
1.22479e-06
1.22479e-06
1.22479e-06
1.22479e-06
1.22479e-06
1.22671e-06
1.22719e-06
1.22818e-06
1.22697e-06
1.22479e-06
1.22479e-06
1.22479e-06
1.22479e-06
1.22479e-06
1.22479e-06
1.22479e-06
1.22479e-06
1.22479e-06
1.22718e-06
1.22827e-06
1.22689e-06
1.22479e-06
1.22479e-06
1.22479e-06
1.22479e-06
1.22479e-06
1.22479e-06
1.22479e-06
1.22479e-06
1.22479e-06
1.22715e-06
1.22825e-06
1.22694e-06
1.22479e-06
1.22479e-06
1.22479e-06
1.22479e-06
1.22479e-06
1.22479e-06
1.22479e-06
1.22479e-06
1.22479e-06
1.22716e-06
1.22825e-06
1.22805e-06
1.22671e-06
1.22479e-06
1.22479e-06
1.22479e-06
1.22479e-06
1.22479e-06
1.22479e-06
1.22479e-06
1.22688e-06
1.22721e-06
1.22828e-06
1.22815e-06
1.22711e-06
1.22668e-06
1.22479e-06
1.22479e-06
1.22479e-06
1.22479e-06
1.22479e-06
1.22684e-06
1.2271e-06
1.2273e-06
1.22809e-06
1.22711e-06
1.22671e-06
1.22479e-06
1.22479e-06
1.22479e-06
1.22688e-06
1.2271e-06
1.22727e-06
1.22828e-06
1.2281e-06
1.22719e-06
1.22718e-06
1.22715e-06
1.22716e-06
1.22721e-06
1.2273e-06
1.22828e-06
1.22818e-06
1.22827e-06
1.22825e-06
1.22825e-06
1.22828e-06
1.21642e-06
1.21527e-06
1.21519e-06
1.21524e-06
1.21635e-06
1.21645e-06
1.21648e-06
1.21543e-06
1.21488e-06
1.21309e-06
1.21309e-06
1.21309e-06
1.21501e-06
1.21541e-06
1.21639e-06
1.21543e-06
1.21485e-06
1.21309e-06
1.21309e-06
1.21309e-06
1.21309e-06
1.21309e-06
1.21498e-06
1.21541e-06
1.2164e-06
1.21642e-06
1.21488e-06
1.21309e-06
1.21309e-06
1.21309e-06
1.21309e-06
1.21309e-06
1.21309e-06
1.21309e-06
1.21501e-06
1.21549e-06
1.21648e-06
1.21527e-06
1.21309e-06
1.21309e-06
1.21309e-06
1.21309e-06
1.21309e-06
1.21309e-06
1.21309e-06
1.21309e-06
1.21309e-06
1.21548e-06
1.21657e-06
1.21519e-06
1.21309e-06
1.21309e-06
1.21309e-06
1.21309e-06
1.21309e-06
1.21309e-06
1.21309e-06
1.21309e-06
1.21309e-06
1.21545e-06
1.21654e-06
1.21524e-06
1.21309e-06
1.21309e-06
1.21309e-06
1.21309e-06
1.21309e-06
1.21309e-06
1.21309e-06
1.21309e-06
1.21309e-06
1.21546e-06
1.21655e-06
1.21635e-06
1.21501e-06
1.21309e-06
1.21309e-06
1.21309e-06
1.21309e-06
1.21309e-06
1.21309e-06
1.21309e-06
1.21517e-06
1.21551e-06
1.21658e-06
1.21645e-06
1.21541e-06
1.21498e-06
1.21309e-06
1.21309e-06
1.21309e-06
1.21309e-06
1.21309e-06
1.21514e-06
1.2154e-06
1.2156e-06
1.21639e-06
1.21541e-06
1.21501e-06
1.21309e-06
1.21309e-06
1.21309e-06
1.21518e-06
1.2154e-06
1.21557e-06
1.21658e-06
1.2164e-06
1.21549e-06
1.21548e-06
1.21545e-06
1.21546e-06
1.21551e-06
1.2156e-06
1.21658e-06
1.21648e-06
1.21656e-06
1.21654e-06
1.21655e-06
1.21658e-06
1.20472e-06
1.20357e-06
1.20349e-06
1.20354e-06
1.20464e-06
1.20474e-06
1.20478e-06
1.20373e-06
1.20318e-06
1.20138e-06
1.20139e-06
1.20139e-06
1.20331e-06
1.20371e-06
1.20469e-06
1.20373e-06
1.20315e-06
1.20139e-06
1.20139e-06
1.20139e-06
1.20139e-06
1.20139e-06
1.20328e-06
1.20371e-06
1.2047e-06
1.20472e-06
1.20318e-06
1.20139e-06
1.20139e-06
1.20139e-06
1.20139e-06
1.20139e-06
1.20139e-06
1.20139e-06
1.2033e-06
1.20379e-06
1.20478e-06
1.20357e-06
1.20139e-06
1.20139e-06
1.20139e-06
1.20139e-06
1.20139e-06
1.20139e-06
1.20139e-06
1.20139e-06
1.20139e-06
1.20378e-06
1.20486e-06
1.20349e-06
1.20139e-06
1.20139e-06
1.20139e-06
1.20139e-06
1.20139e-06
1.20139e-06
1.20139e-06
1.20139e-06
1.20139e-06
1.20375e-06
1.20484e-06
1.20354e-06
1.20139e-06
1.20139e-06
1.20139e-06
1.20139e-06
1.20139e-06
1.20139e-06
1.20139e-06
1.20139e-06
1.20139e-06
1.20376e-06
1.20485e-06
1.20464e-06
1.20331e-06
1.20139e-06
1.20139e-06
1.20139e-06
1.20139e-06
1.20139e-06
1.20139e-06
1.20139e-06
1.20347e-06
1.20381e-06
1.20488e-06
1.20474e-06
1.20371e-06
1.20328e-06
1.20139e-06
1.20139e-06
1.20139e-06
1.20139e-06
1.20139e-06
1.20344e-06
1.2037e-06
1.20389e-06
1.20469e-06
1.20371e-06
1.2033e-06
1.20138e-06
1.20139e-06
1.20139e-06
1.20347e-06
1.2037e-06
1.20387e-06
1.20488e-06
1.2047e-06
1.20379e-06
1.20378e-06
1.20375e-06
1.20376e-06
1.20381e-06
1.20389e-06
1.20488e-06
1.20478e-06
1.20486e-06
1.20484e-06
1.20485e-06
1.20488e-06
1.19302e-06
1.19187e-06
1.19179e-06
1.19184e-06
1.19294e-06
1.19304e-06
1.19307e-06
1.19203e-06
1.19148e-06
1.18968e-06
1.18968e-06
1.18968e-06
1.19161e-06
1.19201e-06
1.19299e-06
1.19203e-06
1.19145e-06
1.18968e-06
1.18968e-06
1.18968e-06
1.18968e-06
1.18968e-06
1.19158e-06
1.192e-06
1.19299e-06
1.19302e-06
1.19148e-06
1.18968e-06
1.18968e-06
1.18968e-06
1.18968e-06
1.18968e-06
1.18968e-06
1.18968e-06
1.1916e-06
1.19209e-06
1.19308e-06
1.19187e-06
1.18968e-06
1.18968e-06
1.18968e-06
1.18968e-06
1.18968e-06
1.18968e-06
1.18968e-06
1.18968e-06
1.18968e-06
1.19208e-06
1.19316e-06
1.19179e-06
1.18968e-06
1.18968e-06
1.18968e-06
1.18968e-06
1.18968e-06
1.18968e-06
1.18968e-06
1.18968e-06
1.18968e-06
1.19204e-06
1.19314e-06
1.19184e-06
1.18968e-06
1.18968e-06
1.18968e-06
1.18968e-06
1.18968e-06
1.18968e-06
1.18968e-06
1.18968e-06
1.18968e-06
1.19206e-06
1.19314e-06
1.19294e-06
1.19161e-06
1.18968e-06
1.18968e-06
1.18968e-06
1.18968e-06
1.18968e-06
1.18968e-06
1.18968e-06
1.19177e-06
1.19211e-06
1.19318e-06
1.19304e-06
1.19201e-06
1.19158e-06
1.18968e-06
1.18968e-06
1.18968e-06
1.18968e-06
1.18968e-06
1.19173e-06
1.192e-06
1.19219e-06
1.19299e-06
1.192e-06
1.1916e-06
1.18968e-06
1.18968e-06
1.18968e-06
1.19177e-06
1.192e-06
1.19217e-06
1.19318e-06
1.19299e-06
1.19209e-06
1.19208e-06
1.19204e-06
1.19206e-06
1.19211e-06
1.19219e-06
1.19318e-06
1.19308e-06
1.19316e-06
1.19314e-06
1.19314e-06
1.19318e-06
1.18132e-06
1.18017e-06
1.18009e-06
1.18014e-06
1.18124e-06
1.18134e-06
1.18137e-06
1.18033e-06
1.17978e-06
1.17798e-06
1.17798e-06
1.17798e-06
1.17991e-06
1.18031e-06
1.18129e-06
1.18033e-06
1.17974e-06
1.17798e-06
1.17798e-06
1.17798e-06
1.17798e-06
1.17798e-06
1.17988e-06
1.1803e-06
1.18129e-06
1.18132e-06
1.17978e-06
1.17798e-06
1.17798e-06
1.17798e-06
1.17798e-06
1.17798e-06
1.17798e-06
1.17798e-06
1.1799e-06
1.18039e-06
1.18138e-06
1.18017e-06
1.17798e-06
1.17798e-06
1.17798e-06
1.17798e-06
1.17798e-06
1.17798e-06
1.17798e-06
1.17798e-06
1.17798e-06
1.18037e-06
1.18146e-06
1.18009e-06
1.17798e-06
1.17798e-06
1.17798e-06
1.17798e-06
1.17798e-06
1.17798e-06
1.17798e-06
1.17798e-06
1.17798e-06
1.18034e-06
1.18144e-06
1.18014e-06
1.17798e-06
1.17798e-06
1.17798e-06
1.17798e-06
1.17798e-06
1.17798e-06
1.17798e-06
1.17798e-06
1.17798e-06
1.18036e-06
1.18144e-06
1.18124e-06
1.17991e-06
1.17798e-06
1.17798e-06
1.17798e-06
1.17798e-06
1.17798e-06
1.17798e-06
1.17798e-06
1.18007e-06
1.18041e-06
1.18148e-06
1.18134e-06
1.18031e-06
1.17988e-06
1.17798e-06
1.17798e-06
1.17798e-06
1.17798e-06
1.17798e-06
1.18003e-06
1.1803e-06
1.18049e-06
1.18129e-06
1.1803e-06
1.1799e-06
1.17798e-06
1.17798e-06
1.17798e-06
1.18007e-06
1.1803e-06
1.18046e-06
1.18148e-06
1.18129e-06
1.18039e-06
1.18037e-06
1.18034e-06
1.18036e-06
1.18041e-06
1.18049e-06
1.18148e-06
1.18138e-06
1.18146e-06
1.18144e-06
1.18144e-06
1.18148e-06
1.16962e-06
1.16847e-06
1.16839e-06
1.16844e-06
1.16954e-06
1.16964e-06
1.16967e-06
1.16863e-06
1.16807e-06
1.16628e-06
1.16628e-06
1.16628e-06
1.16821e-06
1.16861e-06
1.16959e-06
1.16863e-06
1.16804e-06
1.16628e-06
1.16628e-06
1.16628e-06
1.16628e-06
1.16628e-06
1.16818e-06
1.1686e-06
1.16959e-06
1.16962e-06
1.16807e-06
1.16628e-06
1.16628e-06
1.16628e-06
1.16628e-06
1.16628e-06
1.16628e-06
1.16628e-06
1.1682e-06
1.16869e-06
1.16968e-06
1.16847e-06
1.16628e-06
1.16628e-06
1.16628e-06
1.16628e-06
1.16628e-06
1.16628e-06
1.16628e-06
1.16628e-06
1.16628e-06
1.16867e-06
1.16976e-06
1.16839e-06
1.16628e-06
1.16628e-06
1.16628e-06
1.16628e-06
1.16628e-06
1.16628e-06
1.16628e-06
1.16628e-06
1.16628e-06
1.16864e-06
1.16974e-06
1.16844e-06
1.16628e-06
1.16628e-06
1.16628e-06
1.16628e-06
1.16628e-06
1.16628e-06
1.16628e-06
1.16628e-06
1.16628e-06
1.16866e-06
1.16974e-06
1.16954e-06
1.16821e-06
1.16628e-06
1.16628e-06
1.16628e-06
1.16628e-06
1.16628e-06
1.16628e-06
1.16628e-06
1.16837e-06
1.1687e-06
1.16978e-06
1.16964e-06
1.16861e-06
1.16818e-06
1.16628e-06
1.16628e-06
1.16628e-06
1.16628e-06
1.16628e-06
1.16833e-06
1.1686e-06
1.16879e-06
1.16959e-06
1.1686e-06
1.1682e-06
1.16628e-06
1.16628e-06
1.16628e-06
1.16837e-06
1.1686e-06
1.16876e-06
1.16977e-06
1.16959e-06
1.16869e-06
1.16867e-06
1.16864e-06
1.16866e-06
1.1687e-06
1.16879e-06
1.16977e-06
1.16968e-06
1.16976e-06
1.16974e-06
1.16974e-06
1.16978e-06
1.15791e-06
1.15676e-06
1.15669e-06
1.15674e-06
1.15784e-06
1.15794e-06
1.15797e-06
1.15693e-06
1.15637e-06
1.15458e-06
1.15458e-06
1.15458e-06
1.1565e-06
1.15691e-06
1.15789e-06
1.15693e-06
1.15634e-06
1.15458e-06
1.15458e-06
1.15458e-06
1.15458e-06
1.15458e-06
1.15648e-06
1.1569e-06
1.15789e-06
1.15791e-06
1.15637e-06
1.15458e-06
1.15458e-06
1.15458e-06
1.15458e-06
1.15458e-06
1.15458e-06
1.15458e-06
1.1565e-06
1.15699e-06
1.15798e-06
1.15676e-06
1.15458e-06
1.15458e-06
1.15458e-06
1.15458e-06
1.15458e-06
1.15458e-06
1.15458e-06
1.15458e-06
1.15458e-06
1.15697e-06
1.15806e-06
1.15669e-06
1.15458e-06
1.15458e-06
1.15458e-06
1.15458e-06
1.15458e-06
1.15458e-06
1.15458e-06
1.15458e-06
1.15458e-06
1.15694e-06
1.15804e-06
1.15674e-06
1.15458e-06
1.15458e-06
1.15458e-06
1.15458e-06
1.15458e-06
1.15458e-06
1.15458e-06
1.15458e-06
1.15458e-06
1.15695e-06
1.15804e-06
1.15784e-06
1.1565e-06
1.15458e-06
1.15458e-06
1.15458e-06
1.15458e-06
1.15458e-06
1.15458e-06
1.15458e-06