/*--------------------------------*- C++ -*----------------------------------*\
| =========                 |                                                 |
| \\      /  F ield         | OpenFOAM: The Open Source CFD Toolbox           |
|  \\    /   O peration     | Version:  v2012                                 |
|   \\  /    A nd           | Website:  www.openfoam.com                      |
|    \\/     M anipulation  |                                                 |
\*---------------------------------------------------------------------------*/
FoamFile
{
    version     2.0;
    format      ascii;
    class       volScalarField;
    location    "33";
    object      p;
}
// * * * * * * * * * * * * * * * * * * * * * * * * * * * * * * * * * * * * * //

dimensions      [0 2 -2 0 0 0 0];


internalField   nonuniform List<scalar> 
292667
(
1.38213e-06
1.37177e-06
1.37089e-06
1.37097e-06
1.37221e-06
1.38309e-06
1.37198e-06
1.36885e-06
1.36704e-06
1.3663e-06
1.3664e-06
1.36737e-06
1.36947e-06
1.37291e-06
1.37198e-06
1.36793e-06
1.36545e-06
1.36409e-06
1.36351e-06
1.36359e-06
1.36434e-06
1.36592e-06
1.36874e-06
1.37319e-06
1.38213e-06
1.36885e-06
1.36545e-06
1.36345e-06
1.36233e-06
1.36185e-06
1.36191e-06
1.36254e-06
1.36384e-06
1.36612e-06
1.36996e-06
1.38207e-06
1.37177e-06
1.36704e-06
1.36409e-06
1.36233e-06
1.36133e-06
1.3609e-06
1.36096e-06
1.36152e-06
1.36268e-06
1.36468e-06
1.36805e-06
1.37599e-06
1.37089e-06
1.3663e-06
1.36351e-06
1.36185e-06
1.3609e-06
1.36048e-06
1.36054e-06
1.36108e-06
1.36218e-06
1.36408e-06
1.36726e-06
1.37406e-06
1.37097e-06
1.3664e-06
1.36359e-06
1.36191e-06
1.36096e-06
1.36054e-06
1.3606e-06
1.36114e-06
1.36225e-06
1.36416e-06
1.36737e-06
1.3744e-06
1.37221e-06
1.36737e-06
1.36434e-06
1.36254e-06
1.36152e-06
1.36108e-06
1.36114e-06
1.36171e-06
1.3629e-06
1.36495e-06
1.36842e-06
1.37635e-06
1.38309e-06
1.36947e-06
1.36592e-06
1.36384e-06
1.36268e-06
1.36218e-06
1.36225e-06
1.3629e-06
1.36426e-06
1.36665e-06
1.37063e-06
1.38209e-06
1.37291e-06
1.36874e-06
1.36612e-06
1.36468e-06
1.36408e-06
1.36416e-06
1.36495e-06
1.36665e-06
1.36964e-06
1.37689e-06
1.37319e-06
1.36996e-06
1.36805e-06
1.36726e-06
1.36737e-06
1.36842e-06
1.37063e-06
1.37689e-06
1.38207e-06
1.37599e-06
1.37406e-06
1.3744e-06
1.37635e-06
1.38209e-06
1.35209e-06
1.35094e-06
1.35092e-06
1.35095e-06
1.35198e-06
1.35193e-06
1.35216e-06
1.35125e-06
1.35082e-06
1.34909e-06
1.34906e-06
1.34909e-06
1.35095e-06
1.35123e-06
1.35212e-06
1.35125e-06
1.35084e-06
1.34914e-06
1.34906e-06
1.34911e-06
1.34906e-06
1.34914e-06
1.35092e-06
1.3512e-06
1.35209e-06
1.35209e-06
1.35082e-06
1.34914e-06
1.34906e-06
1.34911e-06
1.3491e-06
1.34911e-06
1.34906e-06
1.34914e-06
1.3509e-06
1.35122e-06
1.3522e-06
1.35095e-06
1.34909e-06
1.34906e-06
1.34911e-06
1.34907e-06
1.34907e-06
1.34907e-06
1.34911e-06
1.34906e-06
1.34909e-06
1.35131e-06
1.35226e-06
1.35092e-06
1.34906e-06
1.34911e-06
1.3491e-06
1.34907e-06
1.34906e-06
1.34907e-06
1.3491e-06
1.34911e-06
1.34906e-06
1.3513e-06
1.35208e-06
1.35095e-06
1.34909e-06
1.34906e-06
1.34911e-06
1.34907e-06
1.34907e-06
1.34907e-06
1.34911e-06
1.34906e-06
1.34909e-06
1.35132e-06
1.35213e-06
1.35198e-06
1.35095e-06
1.34914e-06
1.34906e-06
1.34911e-06
1.3491e-06
1.34911e-06
1.34906e-06
1.34914e-06
1.35102e-06
1.35125e-06
1.35224e-06
1.35193e-06
1.35123e-06
1.35092e-06
1.34914e-06
1.34906e-06
1.34911e-06
1.34906e-06
1.34914e-06
1.35098e-06
1.3512e-06
1.35128e-06
1.35212e-06
1.3512e-06
1.3509e-06
1.34909e-06
1.34906e-06
1.34909e-06
1.35102e-06
1.3512e-06
1.35135e-06
1.35225e-06
1.35209e-06
1.35122e-06
1.35132e-06
1.3513e-06
1.35132e-06
1.35125e-06
1.35128e-06
1.35225e-06
1.3522e-06
1.35226e-06
1.35209e-06
1.35213e-06
1.35225e-06
1.34055e-06
1.33946e-06
1.33939e-06
1.33944e-06
1.34049e-06
1.34058e-06
1.34061e-06
1.33964e-06
1.33914e-06
1.33743e-06
1.33743e-06
1.33743e-06
1.33927e-06
1.33963e-06
1.34053e-06
1.33964e-06
1.33913e-06
1.33749e-06
1.33748e-06
1.33752e-06
1.33748e-06
1.33749e-06
1.33927e-06
1.33962e-06
1.34053e-06
1.34055e-06
1.33914e-06
1.33749e-06
1.33749e-06
1.33756e-06
1.33756e-06
1.33756e-06
1.33749e-06
1.33749e-06
1.33927e-06
1.33968e-06
1.34061e-06
1.33946e-06
1.33743e-06
1.33748e-06
1.33756e-06
1.33758e-06
1.33759e-06
1.33758e-06
1.33756e-06
1.33748e-06
1.33743e-06
1.33969e-06
1.3407e-06
1.33939e-06
1.33743e-06
1.33752e-06
1.33756e-06
1.33759e-06
1.3376e-06
1.33759e-06
1.33756e-06
1.33752e-06
1.33743e-06
1.33968e-06
1.34069e-06
1.33944e-06
1.33743e-06
1.33748e-06
1.33756e-06
1.33758e-06
1.33759e-06
1.33758e-06
1.33756e-06
1.33748e-06
1.33743e-06
1.33968e-06
1.34069e-06
1.34049e-06
1.33927e-06
1.33749e-06
1.33749e-06
1.33756e-06
1.33756e-06
1.33756e-06
1.33749e-06
1.33749e-06
1.33942e-06
1.3397e-06
1.34072e-06
1.34058e-06
1.33963e-06
1.33927e-06
1.33749e-06
1.33748e-06
1.33752e-06
1.33748e-06
1.33749e-06
1.3394e-06
1.33961e-06
1.33976e-06
1.34053e-06
1.33962e-06
1.33927e-06
1.33743e-06
1.33743e-06
1.33743e-06
1.33942e-06
1.33961e-06
1.33974e-06
1.34071e-06
1.34053e-06
1.33968e-06
1.33969e-06
1.33968e-06
1.33968e-06
1.3397e-06
1.33976e-06
1.34071e-06
1.34061e-06
1.3407e-06
1.34069e-06
1.34069e-06
1.34072e-06
1.3291e-06
1.328e-06
1.32792e-06
1.32797e-06
1.32904e-06
1.32913e-06
1.32916e-06
1.32816e-06
1.32763e-06
1.32591e-06
1.32591e-06
1.32591e-06
1.32777e-06
1.32815e-06
1.32908e-06
1.32816e-06
1.32761e-06
1.32594e-06
1.32595e-06
1.32597e-06
1.32595e-06
1.32594e-06
1.32775e-06
1.32814e-06
1.32908e-06
1.3291e-06
1.32763e-06
1.32594e-06
1.32596e-06
1.32601e-06
1.32601e-06
1.32601e-06
1.32596e-06
1.32594e-06
1.32776e-06
1.32822e-06
1.32916e-06
1.328e-06
1.32591e-06
1.32595e-06
1.32601e-06
1.32603e-06
1.32604e-06
1.32603e-06
1.32601e-06
1.32595e-06
1.32591e-06
1.32821e-06
1.32925e-06
1.32792e-06
1.32591e-06
1.32597e-06
1.32601e-06
1.32604e-06
1.32605e-06
1.32604e-06
1.32601e-06
1.32597e-06
1.32591e-06
1.32819e-06
1.32924e-06
1.32797e-06
1.32591e-06
1.32595e-06
1.32601e-06
1.32603e-06
1.32604e-06
1.32603e-06
1.32601e-06
1.32595e-06
1.32591e-06
1.3282e-06
1.32924e-06
1.32904e-06
1.32777e-06
1.32594e-06
1.32596e-06
1.32601e-06
1.32601e-06
1.32601e-06
1.32596e-06
1.32594e-06
1.32793e-06
1.32823e-06
1.32927e-06
1.32913e-06
1.32815e-06
1.32775e-06
1.32594e-06
1.32595e-06
1.32597e-06
1.32595e-06
1.32594e-06
1.3279e-06
1.32814e-06
1.32831e-06
1.32908e-06
1.32814e-06
1.32776e-06
1.32591e-06
1.32591e-06
1.32591e-06
1.32793e-06
1.32814e-06
1.32828e-06
1.32926e-06
1.32908e-06
1.32822e-06
1.32821e-06
1.32819e-06
1.3282e-06
1.32823e-06
1.32831e-06
1.32926e-06
1.32917e-06
1.32925e-06
1.32924e-06
1.32924e-06
1.32927e-06
1.31765e-06
1.31654e-06
1.31646e-06
1.31651e-06
1.31758e-06
1.31767e-06
1.3177e-06
1.31669e-06
1.31616e-06
1.31443e-06
1.31443e-06
1.31443e-06
1.31629e-06
1.31668e-06
1.31762e-06
1.31669e-06
1.31613e-06
1.31444e-06
1.31445e-06
1.31446e-06
1.31445e-06
1.31444e-06
1.31627e-06
1.31667e-06
1.31763e-06
1.31765e-06
1.31616e-06
1.31444e-06
1.31446e-06
1.31448e-06
1.31449e-06
1.31448e-06
1.31446e-06
1.31444e-06
1.31629e-06
1.31676e-06
1.31771e-06
1.31654e-06
1.31443e-06
1.31445e-06
1.31448e-06
1.3145e-06
1.31451e-06
1.3145e-06
1.31448e-06
1.31445e-06
1.31443e-06
1.31675e-06
1.3178e-06
1.31646e-06
1.31443e-06
1.31446e-06
1.31449e-06
1.31451e-06
1.31452e-06
1.31451e-06
1.31449e-06
1.31446e-06
1.31443e-06
1.31672e-06
1.31778e-06
1.31651e-06
1.31443e-06
1.31445e-06
1.31448e-06
1.3145e-06
1.31451e-06
1.3145e-06
1.31448e-06
1.31445e-06
1.31443e-06
1.31674e-06
1.31778e-06
1.31758e-06
1.31629e-06
1.31444e-06
1.31446e-06
1.31448e-06
1.31449e-06
1.31448e-06
1.31446e-06
1.31444e-06
1.31646e-06
1.31677e-06
1.31781e-06
1.31767e-06
1.31668e-06
1.31627e-06
1.31444e-06
1.31445e-06
1.31446e-06
1.31445e-06
1.31444e-06
1.31643e-06
1.31667e-06
1.31685e-06
1.31762e-06
1.31667e-06
1.31629e-06
1.31443e-06
1.31443e-06
1.31443e-06
1.31646e-06
1.31668e-06
1.31683e-06
1.3178e-06
1.31763e-06
1.31676e-06
1.31675e-06
1.31672e-06
1.31674e-06
1.31677e-06
1.31685e-06
1.3178e-06
1.31771e-06
1.3178e-06
1.31778e-06
1.31778e-06
1.31781e-06
1.30619e-06
1.30507e-06
1.305e-06
1.30505e-06
1.30612e-06
1.30621e-06
1.30624e-06
1.30523e-06
1.30469e-06
1.30296e-06
1.30296e-06
1.30295e-06
1.30482e-06
1.30521e-06
1.30616e-06
1.30523e-06
1.30466e-06
1.30296e-06
1.30297e-06
1.30297e-06
1.30297e-06
1.30296e-06
1.3048e-06
1.30521e-06
1.30617e-06
1.30619e-06
1.30469e-06
1.30296e-06
1.30297e-06
1.30299e-06
1.30299e-06
1.30299e-06
1.30297e-06
1.30296e-06
1.30482e-06
1.30529e-06
1.30625e-06
1.30507e-06
1.30295e-06
1.30297e-06
1.30299e-06
1.303e-06
1.303e-06
1.303e-06
1.30299e-06
1.30297e-06
1.30295e-06
1.30529e-06
1.30634e-06
1.305e-06
1.30296e-06
1.30297e-06
1.30299e-06
1.303e-06
1.30301e-06
1.303e-06
1.30299e-06
1.30297e-06
1.30296e-06
1.30526e-06
1.30632e-06
1.30505e-06
1.30295e-06
1.30297e-06
1.30299e-06
1.303e-06
1.303e-06
1.303e-06
1.30299e-06
1.30297e-06
1.30295e-06
1.30527e-06
1.30632e-06
1.30612e-06
1.30482e-06
1.30296e-06
1.30297e-06
1.30299e-06
1.30299e-06
1.30299e-06
1.30297e-06
1.30296e-06
1.305e-06
1.30531e-06
1.30635e-06
1.30621e-06
1.30521e-06
1.3048e-06
1.30296e-06
1.30297e-06
1.30297e-06
1.30297e-06
1.30296e-06
1.30496e-06
1.30521e-06
1.30539e-06
1.30616e-06
1.30521e-06
1.30482e-06
1.30296e-06
1.30296e-06
1.30296e-06
1.305e-06
1.30521e-06
1.30537e-06
1.30635e-06
1.30617e-06
1.30529e-06
1.30529e-06
1.30526e-06
1.30527e-06
1.30531e-06
1.30539e-06
1.30635e-06
1.30625e-06
1.30634e-06
1.30632e-06
1.30632e-06
1.30635e-06
1.29473e-06
1.29361e-06
1.29353e-06
1.29358e-06
1.29466e-06
1.29475e-06
1.29478e-06
1.29377e-06
1.29323e-06
1.29149e-06
1.29149e-06
1.29149e-06
1.29336e-06
1.29375e-06
1.2947e-06
1.29377e-06
1.2932e-06
1.29149e-06
1.2915e-06
1.2915e-06
1.2915e-06
1.29149e-06
1.29333e-06
1.29375e-06
1.29471e-06
1.29473e-06
1.29323e-06
1.29149e-06
1.2915e-06
1.29151e-06
1.29151e-06
1.29151e-06
1.2915e-06
1.29149e-06
1.29336e-06
1.29383e-06
1.29479e-06
1.29361e-06
1.29149e-06
1.2915e-06
1.29151e-06
1.29151e-06
1.29152e-06
1.29151e-06
1.29151e-06
1.2915e-06
1.29149e-06
1.29382e-06
1.29488e-06
1.29353e-06
1.29149e-06
1.2915e-06
1.29151e-06
1.29152e-06
1.29152e-06
1.29152e-06
1.29151e-06
1.2915e-06
1.29149e-06
1.2938e-06
1.29486e-06
1.29358e-06
1.29149e-06
1.2915e-06
1.29151e-06
1.29151e-06
1.29152e-06
1.29151e-06
1.29151e-06
1.2915e-06
1.29149e-06
1.29381e-06
1.29486e-06
1.29466e-06
1.29336e-06
1.29149e-06
1.2915e-06
1.29151e-06
1.29151e-06
1.29151e-06
1.2915e-06
1.29149e-06
1.29353e-06
1.29385e-06
1.29489e-06
1.29475e-06
1.29375e-06
1.29333e-06
1.29149e-06
1.2915e-06
1.2915e-06
1.2915e-06
1.29149e-06
1.29349e-06
1.29375e-06
1.29393e-06
1.2947e-06
1.29375e-06
1.29336e-06
1.29149e-06
1.29149e-06
1.29149e-06
1.29353e-06
1.29375e-06
1.29391e-06
1.29488e-06
1.29471e-06
1.29383e-06
1.29382e-06
1.2938e-06
1.29381e-06
1.29385e-06
1.29393e-06
1.29488e-06
1.29479e-06
1.29488e-06
1.29486e-06
1.29486e-06
1.29489e-06
1.28326e-06
1.28215e-06
1.28207e-06
1.28212e-06
1.2832e-06
1.28329e-06
1.28332e-06
1.28231e-06
1.28176e-06
1.28002e-06
1.28002e-06
1.28002e-06
1.2819e-06
1.28229e-06
1.28324e-06
1.28231e-06
1.28173e-06
1.28003e-06
1.28003e-06
1.28003e-06
1.28003e-06
1.28003e-06
1.28187e-06
1.28228e-06
1.28324e-06
1.28326e-06
1.28176e-06
1.28003e-06
1.28003e-06
1.28003e-06
1.28003e-06
1.28003e-06
1.28003e-06
1.28003e-06
1.28189e-06
1.28237e-06
1.28333e-06
1.28215e-06
1.28002e-06
1.28003e-06
1.28003e-06
1.28004e-06
1.28004e-06
1.28004e-06
1.28003e-06
1.28003e-06
1.28002e-06
1.28236e-06
1.28341e-06
1.28207e-06
1.28002e-06
1.28003e-06
1.28003e-06
1.28004e-06
1.28004e-06
1.28004e-06
1.28003e-06
1.28003e-06
1.28002e-06
1.28233e-06
1.2834e-06
1.28212e-06
1.28002e-06
1.28003e-06
1.28003e-06
1.28004e-06
1.28004e-06
1.28004e-06
1.28003e-06
1.28003e-06
1.28002e-06
1.28235e-06
1.2834e-06
1.2832e-06
1.2819e-06
1.28003e-06
1.28003e-06
1.28003e-06
1.28003e-06
1.28003e-06
1.28003e-06
1.28003e-06
1.28207e-06
1.28239e-06
1.28343e-06
1.28329e-06
1.28229e-06
1.28187e-06
1.28003e-06
1.28003e-06
1.28003e-06
1.28003e-06
1.28003e-06
1.28203e-06
1.28229e-06
1.28247e-06
1.28324e-06
1.28228e-06
1.28189e-06
1.28002e-06
1.28002e-06
1.28002e-06
1.28207e-06
1.28229e-06
1.28244e-06
1.28342e-06
1.28324e-06
1.28237e-06
1.28236e-06
1.28233e-06
1.28235e-06
1.28239e-06
1.28247e-06
1.28342e-06
1.28333e-06
1.28341e-06
1.2834e-06
1.2834e-06
1.28343e-06
1.2718e-06
1.27069e-06
1.27061e-06
1.27066e-06
1.27173e-06
1.27183e-06
1.27185e-06
1.27084e-06
1.2703e-06
1.26856e-06
1.26856e-06
1.26856e-06
1.27043e-06
1.27083e-06
1.27178e-06
1.27084e-06
1.27027e-06
1.26856e-06
1.26856e-06
1.26856e-06
1.26856e-06
1.26856e-06
1.27041e-06
1.27082e-06
1.27178e-06
1.2718e-06
1.2703e-06
1.26856e-06
1.26856e-06
1.26857e-06
1.26857e-06
1.26856e-06
1.26856e-06
1.26856e-06
1.27043e-06
1.27091e-06
1.27186e-06
1.27069e-06
1.26856e-06
1.26856e-06
1.26857e-06
1.26857e-06
1.26857e-06
1.26857e-06
1.26856e-06
1.26856e-06
1.26856e-06
1.2709e-06
1.27195e-06
1.27061e-06
1.26856e-06
1.26856e-06
1.26857e-06
1.26857e-06
1.26857e-06
1.26857e-06
1.26857e-06
1.26856e-06
1.26856e-06
1.27087e-06
1.27193e-06
1.27066e-06
1.26856e-06
1.26856e-06
1.26856e-06
1.26857e-06
1.26857e-06
1.26857e-06
1.26856e-06
1.26856e-06
1.26856e-06
1.27088e-06
1.27194e-06
1.27173e-06
1.27043e-06
1.26856e-06
1.26856e-06
1.26856e-06
1.26857e-06
1.26856e-06
1.26856e-06
1.26856e-06
1.27061e-06
1.27093e-06
1.27197e-06
1.27183e-06
1.27083e-06
1.27041e-06
1.26856e-06
1.26856e-06
1.26856e-06
1.26856e-06
1.26856e-06
1.27057e-06
1.27083e-06
1.27101e-06
1.27178e-06
1.27082e-06
1.27043e-06
1.26856e-06
1.26856e-06
1.26856e-06
1.27061e-06
1.27083e-06
1.27098e-06
1.27196e-06
1.27178e-06
1.27091e-06
1.2709e-06
1.27087e-06
1.27088e-06
1.27093e-06
1.27101e-06
1.27196e-06
1.27186e-06
1.27195e-06
1.27193e-06
1.27194e-06
1.27197e-06
1.26034e-06
1.25922e-06
1.25915e-06
1.2592e-06
1.26027e-06
1.26036e-06
1.26039e-06
1.25938e-06
1.25884e-06
1.2571e-06
1.2571e-06
1.2571e-06
1.25897e-06
1.25936e-06
1.26031e-06
1.25938e-06
1.25881e-06
1.2571e-06
1.2571e-06
1.2571e-06
1.2571e-06
1.2571e-06
1.25894e-06
1.25936e-06
1.26032e-06
1.26034e-06
1.25884e-06
1.2571e-06
1.2571e-06
1.2571e-06
1.2571e-06
1.2571e-06
1.2571e-06
1.2571e-06
1.25897e-06
1.25945e-06
1.2604e-06
1.25922e-06
1.2571e-06
1.2571e-06
1.2571e-06
1.2571e-06
1.2571e-06
1.2571e-06
1.2571e-06
1.2571e-06
1.2571e-06
1.25944e-06
1.26049e-06
1.25915e-06
1.2571e-06
1.2571e-06
1.2571e-06
1.2571e-06
1.2571e-06
1.2571e-06
1.2571e-06
1.2571e-06
1.2571e-06
1.25941e-06
1.26047e-06
1.2592e-06
1.2571e-06
1.2571e-06
1.2571e-06
1.2571e-06
1.2571e-06
1.2571e-06
1.2571e-06
1.2571e-06
1.2571e-06
1.25942e-06
1.26047e-06
1.26027e-06
1.25897e-06
1.2571e-06
1.2571e-06
1.2571e-06
1.2571e-06
1.2571e-06
1.2571e-06
1.2571e-06
1.25914e-06
1.25946e-06
1.2605e-06
1.26036e-06
1.25936e-06
1.25894e-06
1.2571e-06
1.2571e-06
1.2571e-06
1.2571e-06
1.2571e-06
1.25911e-06
1.25936e-06
1.25955e-06
1.26031e-06
1.25936e-06
1.25897e-06
1.2571e-06
1.2571e-06
1.2571e-06
1.25914e-06
1.25936e-06
1.25952e-06
1.2605e-06
1.26032e-06
1.25945e-06
1.25944e-06
1.25941e-06
1.25942e-06
1.25946e-06
1.25955e-06
1.2605e-06
1.2604e-06
1.26049e-06
1.26047e-06
1.26047e-06
1.2605e-06
1.24888e-06
1.24776e-06
1.24768e-06
1.24773e-06
1.24881e-06
1.2489e-06
1.24893e-06
1.24792e-06
1.24737e-06
1.24563e-06
1.24563e-06
1.24563e-06
1.24751e-06
1.2479e-06
1.24885e-06
1.24792e-06
1.24734e-06
1.24563e-06
1.24563e-06
1.24563e-06
1.24563e-06
1.24563e-06
1.24748e-06
1.2479e-06
1.24886e-06
1.24888e-06
1.24737e-06
1.24563e-06
1.24563e-06
1.24564e-06
1.24564e-06
1.24564e-06
1.24563e-06
1.24563e-06
1.2475e-06
1.24798e-06
1.24894e-06
1.24776e-06
1.24563e-06
1.24563e-06
1.24564e-06
1.24564e-06
1.24564e-06
1.24564e-06
1.24564e-06
1.24563e-06
1.24563e-06
1.24797e-06
1.24903e-06
1.24768e-06
1.24563e-06
1.24563e-06
1.24564e-06
1.24564e-06
1.24564e-06
1.24564e-06
1.24564e-06
1.24563e-06
1.24563e-06
1.24794e-06
1.24901e-06
1.24773e-06
1.24563e-06
1.24563e-06
1.24564e-06
1.24564e-06
1.24564e-06
1.24564e-06
1.24564e-06
1.24563e-06
1.24563e-06
1.24796e-06
1.24901e-06
1.24881e-06
1.24751e-06
1.24563e-06
1.24563e-06
1.24564e-06
1.24564e-06
1.24564e-06
1.24563e-06
1.24563e-06
1.24768e-06
1.248e-06
1.24904e-06
1.2489e-06
1.2479e-06
1.24748e-06
1.24563e-06
1.24563e-06
1.24563e-06
1.24563e-06
1.24563e-06
1.24764e-06
1.2479e-06
1.24808e-06
1.24885e-06
1.2479e-06
1.2475e-06
1.24563e-06
1.24563e-06
1.24563e-06
1.24768e-06
1.2479e-06
1.24806e-06
1.24904e-06
1.24886e-06
1.24798e-06
1.24797e-06
1.24794e-06
1.24796e-06
1.248e-06
1.24808e-06
1.24904e-06
1.24894e-06
1.24903e-06
1.24901e-06
1.24901e-06
1.24904e-06
1.23741e-06
1.2363e-06
1.23622e-06
1.23627e-06
1.23735e-06
1.23744e-06
1.23747e-06
1.23645e-06
1.23591e-06
1.23417e-06
1.23417e-06
1.23417e-06
1.23605e-06
1.23644e-06
1.23739e-06
1.23645e-06
1.23588e-06
1.23417e-06
1.23417e-06
1.23417e-06
1.23417e-06
1.23417e-06
1.23602e-06
1.23643e-06
1.23739e-06
1.23741e-06
1.23591e-06
1.23417e-06
1.23417e-06
1.23417e-06
1.23417e-06
1.23417e-06
1.23417e-06
1.23417e-06
1.23604e-06
1.23652e-06
1.23747e-06
1.2363e-06
1.23417e-06
1.23417e-06
1.23417e-06
1.23417e-06
1.23417e-06
1.23417e-06
1.23417e-06
1.23417e-06
1.23417e-06
1.23651e-06
1.23756e-06
1.23622e-06
1.23417e-06
1.23417e-06
1.23417e-06
1.23417e-06
1.23417e-06
1.23417e-06
1.23417e-06
1.23417e-06
1.23417e-06
1.23648e-06
1.23754e-06
1.23627e-06
1.23417e-06
1.23417e-06
1.23417e-06
1.23417e-06
1.23417e-06
1.23417e-06
1.23417e-06
1.23417e-06
1.23417e-06
1.23649e-06
1.23755e-06
1.23735e-06
1.23605e-06
1.23417e-06
1.23417e-06
1.23417e-06
1.23417e-06
1.23417e-06
1.23417e-06
1.23417e-06
1.23622e-06
1.23654e-06
1.23758e-06
1.23744e-06
1.23644e-06
1.23602e-06
1.23417e-06
1.23417e-06
1.23417e-06
1.23417e-06
1.23417e-06
1.23618e-06
1.23644e-06
1.23662e-06
1.23739e-06
1.23643e-06
1.23604e-06
1.23417e-06
1.23417e-06
1.23417e-06
1.23622e-06
1.23644e-06
1.23659e-06
1.23757e-06
1.23739e-06
1.23652e-06
1.23651e-06
1.23648e-06
1.23649e-06
1.23654e-06
1.23662e-06
1.23757e-06
1.23747e-06
1.23756e-06
1.23754e-06
1.23755e-06
1.23758e-06
1.22595e-06
1.22484e-06
1.22476e-06
1.22481e-06
1.22588e-06
1.22598e-06
1.226e-06
1.22499e-06
1.22445e-06
1.22271e-06
1.22271e-06
1.22271e-06
1.22458e-06
1.22498e-06
1.22593e-06
1.22499e-06
1.22442e-06
1.22271e-06
1.22271e-06
1.22271e-06
1.22271e-06
1.22271e-06
1.22456e-06
1.22497e-06
1.22593e-06
1.22595e-06
1.22445e-06
1.22271e-06
1.22271e-06
1.22271e-06
1.22271e-06
1.22271e-06
1.22271e-06
1.22271e-06
1.22458e-06
1.22506e-06
1.22601e-06
1.22484e-06
1.22271e-06
1.22271e-06
1.22271e-06
1.22271e-06
1.22271e-06
1.22271e-06
1.22271e-06
1.22271e-06
1.22271e-06
1.22505e-06
1.2261e-06
1.22476e-06
1.22271e-06
1.22271e-06
1.22271e-06
1.22271e-06
1.22271e-06
1.22271e-06
1.22271e-06
1.22271e-06
1.22271e-06
1.22502e-06
1.22608e-06
1.22481e-06
1.22271e-06
1.22271e-06
1.22271e-06
1.22271e-06
1.22271e-06
1.22271e-06
1.22271e-06
1.22271e-06
1.22271e-06
1.22503e-06
1.22608e-06
1.22588e-06
1.22458e-06
1.22271e-06
1.22271e-06
1.22271e-06
1.22271e-06
1.22271e-06
1.22271e-06
1.22271e-06
1.22475e-06
1.22508e-06
1.22612e-06
1.22598e-06
1.22498e-06
1.22456e-06
1.22271e-06
1.22271e-06
1.22271e-06
1.22271e-06
1.22271e-06
1.22472e-06
1.22497e-06
1.22516e-06
1.22593e-06
1.22497e-06
1.22458e-06
1.22271e-06
1.22271e-06
1.22271e-06
1.22475e-06
1.22497e-06
1.22513e-06
1.22611e-06
1.22593e-06
1.22506e-06
1.22505e-06
1.22502e-06
1.22503e-06
1.22508e-06
1.22516e-06
1.22611e-06
1.22601e-06
1.2261e-06
1.22608e-06
1.22608e-06
1.22612e-06
1.21449e-06
1.21337e-06
1.21329e-06
1.21334e-06
1.21442e-06
1.21451e-06
1.21454e-06
1.21353e-06
1.21299e-06
1.21124e-06
1.21125e-06
1.21124e-06
1.21312e-06
1.21351e-06
1.21446e-06
1.21353e-06
1.21295e-06
1.21125e-06
1.21125e-06
1.21125e-06
1.21125e-06
1.21125e-06
1.21309e-06
1.21351e-06
1.21447e-06
1.21449e-06
1.21299e-06
1.21125e-06
1.21125e-06
1.21125e-06
1.21125e-06
1.21125e-06
1.21125e-06
1.21125e-06
1.21312e-06
1.21359e-06
1.21455e-06
1.21337e-06
1.21124e-06
1.21125e-06
1.21125e-06
1.21125e-06
1.21125e-06
1.21125e-06
1.21125e-06
1.21125e-06
1.21124e-06
1.21359e-06
1.21464e-06
1.21329e-06
1.21125e-06
1.21125e-06
1.21125e-06
1.21125e-06
1.21125e-06
1.21125e-06
1.21125e-06
1.21125e-06
1.21125e-06
1.21356e-06
1.21462e-06
1.21334e-06
1.21124e-06
1.21125e-06
1.21125e-06
1.21125e-06
1.21125e-06
1.21125e-06
1.21125e-06
1.21125e-06
1.21124e-06
1.21357e-06
1.21462e-06
1.21442e-06
1.21312e-06
1.21125e-06
1.21125e-06
1.21125e-06
1.21125e-06
1.21125e-06
1.21125e-06
1.21125e-06
1.21329e-06
1.21361e-06
1.21465e-06
1.21451e-06
1.21351e-06
1.21309e-06
1.21125e-06
1.21125e-06
1.21125e-06
1.21125e-06
1.21125e-06
1.21325e-06
1.21351e-06
1.2137e-06
1.21446e-06
1.21351e-06
1.21312e-06
1.21124e-06
1.21125e-06
1.21124e-06
1.21329e-06
1.21351e-06
1.21367e-06
1.21465e-06
1.21447e-06
1.21359e-06
1.21359e-06
1.21356e-06
1.21357e-06
1.21361e-06
1.2137e-06
1.21465e-06
1.21455e-06
1.21464e-06
1.21462e-06
1.21462e-06
1.21465e-06
1.20303e-06
1.20191e-06
1.20183e-06
1.20188e-06
1.20296e-06
1.20305e-06
1.20308e-06
1.20207e-06
1.20152e-06
1.19978e-06
1.19978e-06
1.19978e-06
1.20166e-06
1.20205e-06
1.203e-06
1.20207e-06
1.20149e-06
1.19978e-06
1.19978e-06
1.19978e-06
1.19978e-06
1.19978e-06
1.20163e-06
1.20205e-06
1.20301e-06
1.20303e-06
1.20152e-06
1.19978e-06
1.19978e-06
1.19978e-06
1.19978e-06
1.19978e-06
1.19978e-06
1.19978e-06
1.20165e-06
1.20213e-06
1.20309e-06
1.20191e-06
1.19978e-06
1.19978e-06
1.19978e-06
1.19978e-06
1.19978e-06
1.19978e-06
1.19978e-06
1.19978e-06
1.19978e-06
1.20212e-06
1.20318e-06
1.20183e-06
1.19978e-06
1.19978e-06
1.19978e-06
1.19978e-06
1.19978e-06
1.19978e-06
1.19978e-06
1.19978e-06
1.19978e-06
1.20209e-06
1.20316e-06
1.20188e-06
1.19978e-06
1.19978e-06
1.19978e-06
1.19978e-06
1.19978e-06
1.19978e-06
1.19978e-06
1.19978e-06
1.19978e-06
1.20211e-06
1.20316e-06
1.20296e-06
1.20166e-06
1.19978e-06
1.19978e-06
1.19978e-06
1.19978e-06
1.19978e-06
1.19978e-06
1.19978e-06
1.20183e-06
1.20215e-06
1.20319e-06
1.20305e-06
1.20205e-06
1.20163e-06
1.19978e-06
1.19978e-06
1.19978e-06
1.19978e-06
1.19978e-06
1.20179e-06
1.20205e-06
1.20223e-06
1.203e-06
1.20205e-06
1.20165e-06
1.19978e-06
1.19978e-06
1.19978e-06
1.20183e-06
1.20205e-06
1.20221e-06
1.20318e-06
1.20301e-06
1.20213e-06
1.20212e-06
1.20209e-06
1.20211e-06
1.20215e-06
1.20223e-06
1.20318e-06
1.20309e-06
1.20318e-06
1.20316e-06
1.20316e-06
1.20319e-06
1.19156e-06
1.19045e-06
1.19037e-06
1.19042e-06
1.19149e-06
1.19159e-06
1.19162e-06
1.1906e-06
1.19006e-06
1.18832e-06
1.18832e-06
1.18832e-06
1.19019e-06
1.19059e-06
1.19154e-06
1.1906e-06
1.19003e-06
1.18832e-06
1.18832e-06
1.18832e-06
1.18832e-06
1.18832e-06
1.19017e-06
1.19058e-06
1.19154e-06
1.19156e-06
1.19006e-06
1.18832e-06
1.18832e-06
1.18832e-06
1.18832e-06
1.18832e-06
1.18832e-06
1.18832e-06
1.19019e-06
1.19067e-06
1.19162e-06
1.19045e-06
1.18832e-06
1.18832e-06
1.18832e-06
1.18832e-06
1.18832e-06
1.18832e-06
1.18832e-06
1.18832e-06
1.18832e-06
1.19066e-06
1.19171e-06
1.19037e-06
1.18832e-06
1.18832e-06
1.18832e-06
1.18832e-06
1.18832e-06
1.18832e-06
1.18832e-06
1.18832e-06
1.18832e-06
1.19063e-06
1.19169e-06
1.19042e-06
1.18832e-06
1.18832e-06
1.18832e-06
1.18832e-06
1.18832e-06
1.18832e-06
1.18832e-06
1.18832e-06
1.18832e-06
1.19064e-06
1.1917e-06
1.19149e-06
1.19019e-06
1.18832e-06
1.18832e-06
1.18832e-06
1.18832e-06
1.18832e-06
1.18832e-06
1.18832e-06
1.19037e-06
1.19069e-06
1.19173e-06
1.19159e-06
1.19059e-06
1.19017e-06
1.18832e-06
1.18832e-06
1.18832e-06
1.18832e-06
1.18832e-06
1.19033e-06
1.19059e-06
1.19077e-06
1.19154e-06
1.19058e-06
1.19019e-06
1.18832e-06
1.18832e-06
1.18832e-06
1.19037e-06
1.19059e-06
1.19074e-06
1.19172e-06
1.19154e-06
1.19067e-06
1.19066e-06
1.19063e-06
1.19064e-06
1.19069e-06
1.19077e-06
1.19172e-06
1.19162e-06
1.19171e-06
1.19169e-06
1.1917e-06
1.19173e-06
1.1801e-06
1.17898e-06
1.17891e-06
1.17896e-06
1.18003e-06
1.18013e-06
1.18015e-06
1.17914e-06
1.1786e-06
1.17686e-06
1.17686e-06
1.17686e-06
1.17873e-06
1.17912e-06
1.18008e-06
1.17914e-06
1.17857e-06
1.17686e-06
1.17686e-06
1.17686e-06
1.17686e-06
1.17686e-06
1.1787e-06
1.17912e-06
1.18008e-06
1.1801e-06
1.1786e-06
1.17686e-06
1.17686e-06
1.17686e-06
1.17686e-06
1.17686e-06
1.17686e-06
1.17686e-06
1.17873e-06
1.17921e-06
1.18016e-06
1.17898e-06
1.17686e-06
1.17686e-06
1.17686e-06
1.17686e-06
1.17686e-06
1.17686e-06
1.17686e-06
1.17686e-06
1.17686e-06
1.1792e-06
1.18025e-06
1.17891e-06
1.17686e-06
1.17686e-06
1.17686e-06
1.17686e-06
1.17686e-06
1.17686e-06
1.17686e-06
1.17686e-06
1.17686e-06
1.17917e-06
1.18023e-06
1.17896e-06
1.17686e-06
1.17686e-06
1.17686e-06
1.17686e-06
1.17686e-06
1.17686e-06
1.17686e-06
1.17686e-06
1.17686e-06
1.17918e-06
1.18023e-06
1.18003e-06
1.17873e-06
1.17686e-06
1.17686e-06
1.17686e-06
1.17686e-06
1.17686e-06
1.17686e-06
1.17686e-06
1.1789e-06
1.17923e-06
1.18027e-06
1.18013e-06
1.17912e-06
1.1787e-06
1.17686e-06
1.17686e-06
1.17686e-06
1.17686e-06
1.17686e-06
1.17887e-06
1.17912e-06
1.17931e-06
1.18008e-06
1.17912e-06
1.17873e-06
1.17686e-06
1.17686e-06
1.17686e-06
1.1789e-06
1.17912e-06
1.17928e-06
1.18026e-06
1.18008e-06
1.17921e-06
1.1792e-06
1.17917e-06
1.17918e-06
1.17923e-06
1.17931e-06
1.18026e-06
1.18016e-06
1.18025e-06
1.18023e-06
1.18023e-06
1.18027e-06
1.16864e-06
1.16752e-06
1.16744e-06
1.16749e-06
1.16857e-06
1.16866e-06
1.16869e-06
1.16768e-06
1.16714e-06
1.16539e-06
1.16539e-06
1.16539e-06
1.16727e-06
1.16766e-06
1.16861e-06
1.16768e-06
1.1671e-06
1.16539e-06
1.16539e-06
1.16539e-06
1.16539e-06
1.16539e-06
1.16724e-06
1.16766e-06
1.16862e-06
1.16864e-06
1.16714e-06
1.16539e-06
1.16539e-06
1.16539e-06
1.16539e-06
1.16539e-06
1.16539e-06
1.16539e-06
1.16727e-06
1.16774e-06
1.1687e-06
1.16752e-06
1.16539e-06
1.16539e-06
1.16539e-06
1.16539e-06
1.16539e-06
1.16539e-06
1.16539e-06
1.16539e-06
1.16539e-06
1.16773e-06
1.16879e-06
1.16744e-06
1.16539e-06
1.16539e-06
1.16539e-06
1.16539e-06
1.16539e-06
1.16539e-06
1.16539e-06
1.16539e-06
1.16539e-06
1.16771e-06
1.16877e-06
1.16749e-06
1.16539e-06
1.16539e-06
1.16539e-06
1.16539e-06
1.16539e-06
1.16539e-06
1.16539e-06
1.16539e-06
1.16539e-06
1.16772e-06
1.16877e-06
1.16857e-06
1.16727e-06
1.16539e-06
1.16539e-06
1.16539e-06
1.16539e-06
1.16539e-06
1.16539e-06
1.16539e-06
1.16744e-06
1.16776e-06
1.1688e-06
1.16866e-06
1.16766e-06
1.16724e-06
1.16539e-06
1.16539e-06
1.16539e-06
1.16539e-06
1.16539e-06
1.1674e-06
1.16766e-06
1.16784e-06
1.16861e-06
1.16766e-06
1.16727e-06
1.16539e-06
1.16539e-06
1.16539e-06
1.16744e-06
1.16766e-06
1.16782e-06
1.1688e-06
1.16862e-06
1.16774e-06
1.16773e-06
1.16771e-06
1.16772e-06
1.16776e-06
1.16784e-06
1.1688e-06
1.1687e-06
1.16879e-06
1.16877e-06
1.16877e-06
1.1688e-06
1.15717e-06
1.15606e-06
1.15598e-06
1.15603e-06
1.15711e-06
1.1572e-06
1.15723e-06
1.15622e-06
1.15567e-06
1.15393e-06
1.15393e-06
1.15393e-06
1.15581e-06
1.1562e-06
1.15715e-06
1.15622e-06
1.15564e-06
1.15393e-06
1.15393e-06
1.15393e-06
1.15393e-06
1.15393e-06
1.15578e-06
1.15619e-06
1.15716e-06
1.15717e-06
1.15567e-06
1.15393e-06
1.15393e-06
1.15393e-06
1.15393e-06
1.15393e-06
1.15393e-06
1.15393e-06
1.1558e-06
1.15628e-06
1.15724e-06
1.15606e-06
1.15393e-06
1.15393e-06
1.15393e-06
1.15393e-06
1.15393e-06
1.15393e-06
1.15393e-06
1.15393e-06
1.15393e-06
1.15627e-06
1.15732e-06
1.15598e-06
1.15393e-06
1.15393e-06
1.15393e-06
1.15393e-06
1.15393e-06
1.15393e-06
1.15393e-06
1.15393e-06
1.15393e-06
1.15624e-06
1.15731e-06
1.15603e-06
1.15393e-06
1.15393e-06
1.15393e-06
1.15393e-06
1.15393e-06
1.15393e-06
1.15393e-06
1.15393e-06
1.15393e-06
1.15626e-06
1.15731e-06
1.15711e-06
1.15581e-06
1.15393e-06
1.15393e-06
1.15393e-06
1.15393e-06
1.15393e-06
1.15393e-06
1.15393e-06
1.15598e-06
1.1563e-06
1.15734e-06
1.1572e-06
1.1562e-06
1.15578e-06
1.15393e-06
1.15393e-06
1.15393e-06
1.15393e-06
1.15393e-06
1.15594e-06
1.1562e-06
1.15638e-06
1.15715e-06
1.15619e-06
1.1558e-06
1.15393e-06
1.15393e-06
1.15393e-06
1.15598e-06
1.1562e-06
1.15635e-06
1.15733e-06
1.15716e-06
1.15628e-06
1.15627e-06
1.15624e-06
1.15626e-06
1.1563e-06
1.15638e-06
1.15733e-06
1.15724e-06
1.15732e-06
1.15731e-06
1.15731e-06
1.15734e-06
1.14571e-06
1.1446e-06
1.14452e-06
1.14457e-06
1.14564e-06
1.14574e-06
1.14576e-06
1.14475e-06
1.14421e-06
1.14247e-06
1.14247e-06
1.14247e-06
1.14434e-06
1.14474e-06
1.14569e-06
1.14475e-06
1.14418e-06
1.14247e-06
1.14247e-06
1.14247e-06
1.14247e-06
1.14247e-06
1.14432e-06
1.14473e-06
1.14569e-06
1.14571e-06
1.14421e-06
1.14247e-06
1.14247e-06
1.14247e-06
1.14247e-06
1.14247e-06
1.14247e-06
1.14247e-06
1.14434e-06
1.14482e-06
1.14577e-06
1.1446e-06
1.14247e-06
1.14247e-06
1.14247e-06
1.14247e-06
1.14247e-06
1.14247e-06
1.14247e-06
1.14247e-06
1.14247e-06
1.14481e-06
1.14586e-06
1.14452e-06
1.14247e-06
1.14247e-06
1.14247e-06
1.14247e-06
1.14247e-06
1.14247e-06
1.14247e-06
1.14247e-06
1.14247e-06
1.14478e-06
1.14584e-06
1.14457e-06
1.14247e-06
1.14247e-06
1.14247e-06
1.14247e-06
1.14247e-06
1.14247e-06
1.14247e-06
1.14247e-06
1.14247e-06
1.14479e-06
1.14585e-06
1.14564e-06
1.14434e-06
1.14247e-06
1.14247e-06
1.14247e-06
1.14247e-06
1.14247e-06
1.14247e-06
1.14247e-06
1.14452e-06
1.14484e-06
1.14588e-06
1.14574e-06
1.14474e-06
1.14432e-06
1.14247e-06
1.14247e-06
1.14247e-06
1.14247e-06
1.14247e-06
1.14448e-06
1.14474e-06
1.14492e-06
1.14569e-06
1.14473e-06
1.14434e-06
1.14247e-06
1.14247e-06
1.14247e-06
1.14452e-06
1.14474e-06
1.14489e-06
1.14587e-06
1.14569e-06
1.14482e-06
1.14481e-06
1.14478e-06
1.14479e-06
1.14484e-06
1.14492e-06
1.14587e-06
1.14577e-06
1.14586e-06
1.14584e-06
1.14585e-06
1.14588e-06
1.13425e-06
1.13313e-06
1.13305e-06
1.13311e-06
1.13418e-06
1.13427e-06
1.1343e-06
1.13329e-06
1.13275e-06
1.13101e-06
1.13101e-06
1.13101e-06
1.13288e-06
1.13327e-06
1.13422e-06
1.13329e-06
1.13272e-06
1.13101e-06
1.13101e-06
1.13101e-06
1.13101e-06
1.13101e-06
1.13285e-06
1.13327e-06
1.13423e-06
1.13425e-06
1.13275e-06
1.13101e-06
1.13101e-06
1.13101e-06
1.13101e-06
1.13101e-06
1.13101e-06
1.13101e-06
1.13288e-06
1.13336e-06
1.13431e-06
1.13313e-06
1.13101e-06
1.13101e-06
1.13101e-06
1.13101e-06
1.13101e-06
1.13101e-06
1.13101e-06
1.13101e-06
1.13101e-06
1.13335e-06
1.1344e-06
1.13306e-06
1.13101e-06
1.13101e-06
1.13101e-06
1.13101e-06
1.13101e-06
1.13101e-06
1.13101e-06
1.13101e-06
1.13101e-06
1.13332e-06
1.13438e-06
1.13311e-06
1.13101e-06
1.13101e-06
1.13101e-06
1.13101e-06
1.13101e-06