/*--------------------------------*- C++ -*----------------------------------*\
| =========                 |                                                 |
| \\      /  F ield         | OpenFOAM: The Open Source CFD Toolbox           |
|  \\    /   O peration     | Version:  v2012                                 |
|   \\  /    A nd           | Website:  www.openfoam.com                      |
|    \\/     M anipulation  |                                                 |
\*---------------------------------------------------------------------------*/
FoamFile
{
    version     2.0;
    format      ascii;
    class       volScalarField;
    location    "27";
    object      p;
}
// * * * * * * * * * * * * * * * * * * * * * * * * * * * * * * * * * * * * * //

dimensions      [0 2 -2 0 0 0 0];


internalField   nonuniform List<scalar> 
292667
(
1.47444e-06
1.46347e-06
1.46252e-06
1.46261e-06
1.46395e-06
1.47542e-06
1.46368e-06
1.46029e-06
1.45835e-06
1.45755e-06
1.45766e-06
1.4587e-06
1.46097e-06
1.4647e-06
1.46368e-06
1.4593e-06
1.45663e-06
1.45518e-06
1.45456e-06
1.45465e-06
1.45545e-06
1.45715e-06
1.46018e-06
1.46501e-06
1.47443e-06
1.46029e-06
1.45663e-06
1.45449e-06
1.4533e-06
1.45278e-06
1.45285e-06
1.45352e-06
1.45492e-06
1.45736e-06
1.4615e-06
1.47456e-06
1.46347e-06
1.45835e-06
1.45518e-06
1.4533e-06
1.45223e-06
1.45177e-06
1.45183e-06
1.45243e-06
1.45367e-06
1.45581e-06
1.45943e-06
1.46802e-06
1.46252e-06
1.45755e-06
1.45456e-06
1.45278e-06
1.45177e-06
1.45132e-06
1.45139e-06
1.45196e-06
1.45314e-06
1.45517e-06
1.45859e-06
1.46593e-06
1.46261e-06
1.45766e-06
1.45465e-06
1.45285e-06
1.45183e-06
1.45139e-06
1.45145e-06
1.45203e-06
1.45322e-06
1.45526e-06
1.4587e-06
1.46628e-06
1.46395e-06
1.4587e-06
1.45545e-06
1.45352e-06
1.45243e-06
1.45196e-06
1.45203e-06
1.45264e-06
1.45391e-06
1.45611e-06
1.45983e-06
1.46841e-06
1.47542e-06
1.46097e-06
1.45715e-06
1.45492e-06
1.45367e-06
1.45314e-06
1.45322e-06
1.45391e-06
1.45537e-06
1.45793e-06
1.46223e-06
1.47467e-06
1.4647e-06
1.46018e-06
1.45736e-06
1.45581e-06
1.45517e-06
1.45526e-06
1.45611e-06
1.45793e-06
1.46115e-06
1.46889e-06
1.46501e-06
1.4615e-06
1.45943e-06
1.45859e-06
1.4587e-06
1.45983e-06
1.46223e-06
1.46889e-06
1.47456e-06
1.46802e-06
1.46593e-06
1.46628e-06
1.46841e-06
1.47467e-06
1.44246e-06
1.44117e-06
1.44115e-06
1.44118e-06
1.4423e-06
1.44228e-06
1.44254e-06
1.44151e-06
1.44105e-06
1.43916e-06
1.43913e-06
1.43916e-06
1.44116e-06
1.44145e-06
1.44245e-06
1.44151e-06
1.44107e-06
1.43921e-06
1.43912e-06
1.43916e-06
1.43912e-06
1.43921e-06
1.44112e-06
1.44143e-06
1.44242e-06
1.44246e-06
1.44105e-06
1.43922e-06
1.43913e-06
1.43917e-06
1.43916e-06
1.43917e-06
1.43913e-06
1.43921e-06
1.44111e-06
1.44145e-06
1.44256e-06
1.44118e-06
1.43916e-06
1.43912e-06
1.43917e-06
1.43914e-06
1.43913e-06
1.43914e-06
1.43917e-06
1.43912e-06
1.43916e-06
1.44151e-06
1.44259e-06
1.44115e-06
1.43914e-06
1.43917e-06
1.43916e-06
1.43913e-06
1.43913e-06
1.43913e-06
1.43916e-06
1.43916e-06
1.43913e-06
1.44148e-06
1.44237e-06
1.44118e-06
1.43916e-06
1.43912e-06
1.43917e-06
1.43914e-06
1.43913e-06
1.43914e-06
1.43917e-06
1.43912e-06
1.43916e-06
1.44151e-06
1.44242e-06
1.4423e-06
1.44116e-06
1.43922e-06
1.43913e-06
1.43917e-06
1.43916e-06
1.43917e-06
1.43913e-06
1.43921e-06
1.44119e-06
1.44147e-06
1.44259e-06
1.44228e-06
1.44145e-06
1.44112e-06
1.43922e-06
1.43912e-06
1.43916e-06
1.43912e-06
1.43921e-06
1.44116e-06
1.44141e-06
1.44152e-06
1.44245e-06
1.44143e-06
1.44111e-06
1.43916e-06
1.43913e-06
1.43916e-06
1.44119e-06
1.44141e-06
1.4416e-06
1.4426e-06
1.44242e-06
1.44145e-06
1.44151e-06
1.44148e-06
1.44151e-06
1.44147e-06
1.44152e-06
1.4426e-06
1.44256e-06
1.44259e-06
1.44237e-06
1.44242e-06
1.44259e-06
1.43014e-06
1.42894e-06
1.42886e-06
1.42891e-06
1.43005e-06
1.43016e-06
1.4302e-06
1.42913e-06
1.42861e-06
1.42673e-06
1.42673e-06
1.42673e-06
1.42873e-06
1.4291e-06
1.4301e-06
1.42913e-06
1.42861e-06
1.42679e-06
1.42678e-06
1.42682e-06
1.42678e-06
1.42679e-06
1.42872e-06
1.42909e-06
1.4301e-06
1.43014e-06
1.42861e-06
1.42679e-06
1.4268e-06
1.42687e-06
1.42687e-06
1.42687e-06
1.4268e-06
1.42679e-06
1.42871e-06
1.42915e-06
1.4302e-06
1.42894e-06
1.42673e-06
1.42678e-06
1.42687e-06
1.42689e-06
1.4269e-06
1.42689e-06
1.42687e-06
1.42678e-06
1.42673e-06
1.42914e-06
1.43027e-06
1.42886e-06
1.42673e-06
1.42682e-06
1.42687e-06
1.4269e-06
1.42691e-06
1.4269e-06
1.42687e-06
1.42682e-06
1.42673e-06
1.42912e-06
1.43024e-06
1.42891e-06
1.42673e-06
1.42678e-06
1.42687e-06
1.42689e-06
1.4269e-06
1.42689e-06
1.42687e-06
1.42678e-06
1.42673e-06
1.42913e-06
1.43024e-06
1.43005e-06
1.42873e-06
1.42679e-06
1.4268e-06
1.42687e-06
1.42687e-06
1.42687e-06
1.4268e-06
1.42679e-06
1.42884e-06
1.42916e-06
1.43029e-06
1.43016e-06
1.4291e-06
1.42872e-06
1.42679e-06
1.42678e-06
1.42682e-06
1.42678e-06
1.42679e-06
1.42882e-06
1.42906e-06
1.42924e-06
1.4301e-06
1.42909e-06
1.42872e-06
1.42673e-06
1.42673e-06
1.42673e-06
1.42884e-06
1.42906e-06
1.42922e-06
1.43029e-06
1.4301e-06
1.42915e-06
1.42914e-06
1.42912e-06
1.42913e-06
1.42916e-06
1.42924e-06
1.43029e-06
1.4302e-06
1.43027e-06
1.43024e-06
1.43024e-06
1.43029e-06
1.41793e-06
1.41671e-06
1.41663e-06
1.41668e-06
1.41783e-06
1.41794e-06
1.41799e-06
1.41689e-06
1.41633e-06
1.41444e-06
1.41444e-06
1.41444e-06
1.41645e-06
1.41686e-06
1.41788e-06
1.41689e-06
1.41632e-06
1.41448e-06
1.41448e-06
1.41451e-06
1.41448e-06
1.41448e-06
1.41644e-06
1.41685e-06
1.41789e-06
1.41793e-06
1.41633e-06
1.41448e-06
1.4145e-06
1.41454e-06
1.41455e-06
1.41454e-06
1.4145e-06
1.41448e-06
1.41645e-06
1.41693e-06
1.41799e-06
1.41671e-06
1.41444e-06
1.41448e-06
1.41455e-06
1.41457e-06
1.41458e-06
1.41457e-06
1.41455e-06
1.41448e-06
1.41444e-06
1.4169e-06
1.41806e-06
1.41663e-06
1.41444e-06
1.41451e-06
1.41455e-06
1.41458e-06
1.41459e-06
1.41458e-06
1.41455e-06
1.41451e-06
1.41444e-06
1.41687e-06
1.41803e-06
1.41668e-06
1.41444e-06
1.41448e-06
1.41455e-06
1.41457e-06
1.41458e-06
1.41457e-06
1.41454e-06
1.41448e-06
1.41444e-06
1.41689e-06
1.41803e-06
1.41783e-06
1.41645e-06
1.41448e-06
1.4145e-06
1.41455e-06
1.41455e-06
1.41455e-06
1.4145e-06
1.41448e-06
1.41659e-06
1.41693e-06
1.41808e-06
1.41794e-06
1.41686e-06
1.41644e-06
1.41448e-06
1.41448e-06
1.41451e-06
1.41448e-06
1.41448e-06
1.41656e-06
1.41683e-06
1.41702e-06
1.41788e-06
1.41685e-06
1.41645e-06
1.41444e-06
1.41444e-06
1.41444e-06
1.41659e-06
1.41683e-06
1.417e-06
1.41808e-06
1.41789e-06
1.41693e-06
1.4169e-06
1.41687e-06
1.41689e-06
1.41694e-06
1.41702e-06
1.41808e-06
1.41799e-06
1.41806e-06
1.41803e-06
1.41803e-06
1.41808e-06
1.40571e-06
1.40448e-06
1.4044e-06
1.40445e-06
1.40561e-06
1.40572e-06
1.40577e-06
1.40466e-06
1.40409e-06
1.40219e-06
1.40219e-06
1.40219e-06
1.40421e-06
1.40463e-06
1.40566e-06
1.40466e-06
1.40407e-06
1.40221e-06
1.40222e-06
1.40223e-06
1.40222e-06
1.40221e-06
1.40419e-06
1.40462e-06
1.40567e-06
1.40571e-06
1.40409e-06
1.40221e-06
1.40223e-06
1.40226e-06
1.40226e-06
1.40226e-06
1.40223e-06
1.40221e-06
1.40421e-06
1.4047e-06
1.40577e-06
1.40448e-06
1.40219e-06
1.40222e-06
1.40226e-06
1.40227e-06
1.40228e-06
1.40227e-06
1.40226e-06
1.40222e-06
1.40219e-06
1.40468e-06
1.40584e-06
1.4044e-06
1.40219e-06
1.40223e-06
1.40226e-06
1.40228e-06
1.40229e-06
1.40228e-06
1.40226e-06
1.40223e-06
1.40219e-06
1.40464e-06
1.40581e-06
1.40445e-06
1.40219e-06
1.40222e-06
1.40226e-06
1.40227e-06
1.40228e-06
1.40227e-06
1.40226e-06
1.40222e-06
1.40219e-06
1.40466e-06
1.40581e-06
1.40561e-06
1.40421e-06
1.40221e-06
1.40223e-06
1.40226e-06
1.40226e-06
1.40226e-06
1.40223e-06
1.40221e-06
1.40436e-06
1.40471e-06
1.40586e-06
1.40572e-06
1.40463e-06
1.40419e-06
1.40221e-06
1.40222e-06
1.40223e-06
1.40222e-06
1.40221e-06
1.40432e-06
1.4046e-06
1.4048e-06
1.40566e-06
1.40462e-06
1.40421e-06
1.40219e-06
1.40219e-06
1.40219e-06
1.40436e-06
1.4046e-06
1.40478e-06
1.40586e-06
1.40567e-06
1.4047e-06
1.40468e-06
1.40464e-06
1.40466e-06
1.40471e-06
1.4048e-06
1.40586e-06
1.40577e-06
1.40584e-06
1.40581e-06
1.40581e-06
1.40586e-06
1.39348e-06
1.39226e-06
1.39217e-06
1.39223e-06
1.39339e-06
1.3935e-06
1.39354e-06
1.39243e-06
1.39186e-06
1.38996e-06
1.38996e-06
1.38996e-06
1.39198e-06
1.3924e-06
1.39344e-06
1.39243e-06
1.39183e-06
1.38997e-06
1.38997e-06
1.38998e-06
1.38997e-06
1.38997e-06
1.39195e-06
1.39239e-06
1.39345e-06
1.39348e-06
1.39186e-06
1.38997e-06
1.38998e-06
1.38999e-06
1.38999e-06
1.38999e-06
1.38998e-06
1.38997e-06
1.39197e-06
1.39248e-06
1.39355e-06
1.39226e-06
1.38996e-06
1.38997e-06
1.38999e-06
1.39e-06
1.39001e-06
1.39e-06
1.38999e-06
1.38997e-06
1.38996e-06
1.39245e-06
1.39361e-06
1.39217e-06
1.38996e-06
1.38998e-06
1.38999e-06
1.39001e-06
1.39001e-06
1.39001e-06
1.38999e-06
1.38998e-06
1.38996e-06
1.39241e-06
1.39358e-06
1.39223e-06
1.38996e-06
1.38997e-06
1.38999e-06
1.39e-06
1.39001e-06
1.39e-06
1.38999e-06
1.38997e-06
1.38996e-06
1.39243e-06
1.39359e-06
1.39339e-06
1.39198e-06
1.38997e-06
1.38998e-06
1.38999e-06
1.38999e-06
1.38999e-06
1.38998e-06
1.38997e-06
1.39213e-06
1.39249e-06
1.39364e-06
1.3935e-06
1.3924e-06
1.39195e-06
1.38997e-06
1.38997e-06
1.38998e-06
1.38997e-06
1.38997e-06
1.39209e-06
1.39237e-06
1.39258e-06
1.39344e-06
1.39239e-06
1.39197e-06
1.38996e-06
1.38996e-06
1.38996e-06
1.39213e-06
1.39237e-06
1.39255e-06
1.39363e-06
1.39345e-06
1.39248e-06
1.39245e-06
1.39241e-06
1.39243e-06
1.39249e-06
1.39258e-06
1.39363e-06
1.39355e-06
1.39361e-06
1.39358e-06
1.39359e-06
1.39364e-06
1.38126e-06
1.38003e-06
1.37995e-06
1.38e-06
1.38116e-06
1.38128e-06
1.38132e-06
1.3802e-06
1.37963e-06
1.37773e-06
1.37773e-06
1.37773e-06
1.37975e-06
1.38017e-06
1.38121e-06
1.3802e-06
1.3796e-06
1.37773e-06
1.37773e-06
1.37774e-06
1.37773e-06
1.37773e-06
1.37972e-06
1.38017e-06
1.38122e-06
1.38126e-06
1.37963e-06
1.37773e-06
1.37774e-06
1.37775e-06
1.37775e-06
1.37775e-06
1.37774e-06
1.37773e-06
1.37975e-06
1.38025e-06
1.38132e-06
1.38003e-06
1.37773e-06
1.37773e-06
1.37775e-06
1.37775e-06
1.37776e-06
1.37775e-06
1.37775e-06
1.37773e-06
1.37773e-06
1.38022e-06
1.38139e-06
1.37995e-06
1.37773e-06
1.37774e-06
1.37775e-06
1.37776e-06
1.37776e-06
1.37776e-06
1.37775e-06
1.37774e-06
1.37773e-06
1.38019e-06
1.38136e-06
1.38e-06
1.37773e-06
1.37773e-06
1.37775e-06
1.37775e-06
1.37776e-06
1.37775e-06
1.37775e-06
1.37773e-06
1.37773e-06
1.3802e-06
1.38136e-06
1.38116e-06
1.37975e-06
1.37773e-06
1.37774e-06
1.37775e-06
1.37775e-06
1.37775e-06
1.37774e-06
1.37773e-06
1.3799e-06
1.38026e-06
1.38141e-06
1.38128e-06
1.38017e-06
1.37972e-06
1.37773e-06
1.37773e-06
1.37774e-06
1.37773e-06
1.37773e-06
1.37986e-06
1.38015e-06
1.38036e-06
1.38121e-06
1.38017e-06
1.37975e-06
1.37773e-06
1.37773e-06
1.37773e-06
1.3799e-06
1.38015e-06
1.38033e-06
1.38141e-06
1.38122e-06
1.38025e-06
1.38022e-06
1.38019e-06
1.3802e-06
1.38026e-06
1.38036e-06
1.38141e-06
1.38132e-06
1.38139e-06
1.38136e-06
1.38136e-06
1.38141e-06
1.36903e-06
1.3678e-06
1.36772e-06
1.36777e-06
1.36894e-06
1.36905e-06
1.36909e-06
1.36798e-06
1.3674e-06
1.3655e-06
1.3655e-06
1.3655e-06
1.36753e-06
1.36795e-06
1.36899e-06
1.36798e-06
1.36737e-06
1.3655e-06
1.3655e-06
1.3655e-06
1.3655e-06
1.3655e-06
1.3675e-06
1.36794e-06
1.36899e-06
1.36903e-06
1.36741e-06
1.3655e-06
1.3655e-06
1.36551e-06
1.36551e-06
1.36551e-06
1.3655e-06
1.3655e-06
1.36752e-06
1.36803e-06
1.36909e-06
1.3678e-06
1.3655e-06
1.3655e-06
1.36551e-06
1.36551e-06
1.36551e-06
1.36551e-06
1.36551e-06
1.3655e-06
1.3655e-06
1.368e-06
1.36916e-06
1.36772e-06
1.3655e-06
1.3655e-06
1.36551e-06
1.36551e-06
1.36552e-06
1.36551e-06
1.36551e-06
1.3655e-06
1.3655e-06
1.36796e-06
1.36913e-06
1.36777e-06
1.3655e-06
1.3655e-06
1.36551e-06
1.36551e-06
1.36551e-06
1.36551e-06
1.36551e-06
1.3655e-06
1.3655e-06
1.36798e-06
1.36913e-06
1.36894e-06
1.36753e-06
1.3655e-06
1.3655e-06
1.36551e-06
1.36551e-06
1.36551e-06
1.3655e-06
1.3655e-06
1.36767e-06
1.36804e-06
1.36918e-06
1.36905e-06
1.36795e-06
1.3675e-06
1.3655e-06
1.3655e-06
1.3655e-06
1.3655e-06
1.3655e-06
1.36763e-06
1.36792e-06
1.36813e-06
1.36899e-06
1.36794e-06
1.36752e-06
1.3655e-06
1.3655e-06
1.3655e-06
1.36767e-06
1.36792e-06
1.3681e-06
1.36918e-06
1.36899e-06
1.36803e-06
1.368e-06
1.36796e-06
1.36798e-06
1.36804e-06
1.36813e-06
1.36918e-06
1.36909e-06
1.36916e-06
1.36913e-06
1.36913e-06
1.36918e-06
1.3568e-06
1.35558e-06
1.35549e-06
1.35555e-06
1.35671e-06
1.35682e-06
1.35687e-06
1.35575e-06
1.35518e-06
1.35327e-06
1.35327e-06
1.35327e-06
1.3553e-06
1.35572e-06
1.35676e-06
1.35575e-06
1.35515e-06
1.35327e-06
1.35327e-06
1.35327e-06
1.35327e-06
1.35327e-06
1.35527e-06
1.35571e-06
1.35677e-06
1.3568e-06
1.35518e-06
1.35327e-06
1.35327e-06
1.35328e-06
1.35328e-06
1.35328e-06
1.35327e-06
1.35327e-06
1.35529e-06
1.3558e-06
1.35687e-06
1.35558e-06
1.35327e-06
1.35327e-06
1.35328e-06
1.35328e-06
1.35328e-06
1.35328e-06
1.35328e-06
1.35327e-06
1.35327e-06
1.35577e-06
1.35694e-06
1.35549e-06
1.35327e-06
1.35327e-06
1.35328e-06
1.35328e-06
1.35328e-06
1.35328e-06
1.35328e-06
1.35327e-06
1.35327e-06
1.35573e-06
1.3569e-06
1.35555e-06
1.35327e-06
1.35327e-06
1.35328e-06
1.35328e-06
1.35328e-06
1.35328e-06
1.35328e-06
1.35327e-06
1.35327e-06
1.35575e-06
1.35691e-06
1.35671e-06
1.3553e-06
1.35327e-06
1.35327e-06
1.35328e-06
1.35328e-06
1.35328e-06
1.35327e-06
1.35327e-06
1.35545e-06
1.35581e-06
1.35696e-06
1.35682e-06
1.35572e-06
1.35527e-06
1.35327e-06
1.35327e-06
1.35327e-06
1.35327e-06
1.35327e-06
1.35541e-06
1.35569e-06
1.3559e-06
1.35676e-06
1.35571e-06
1.35529e-06
1.35327e-06
1.35327e-06
1.35327e-06
1.35545e-06
1.35569e-06
1.35588e-06
1.35696e-06
1.35677e-06
1.3558e-06
1.35577e-06
1.35573e-06
1.35575e-06
1.35581e-06
1.3559e-06
1.35696e-06
1.35687e-06
1.35694e-06
1.3569e-06
1.35691e-06
1.35696e-06
1.34458e-06
1.34335e-06
1.34327e-06
1.34332e-06
1.34448e-06
1.3446e-06
1.34464e-06
1.34352e-06
1.34295e-06
1.34104e-06
1.34104e-06
1.34104e-06
1.34307e-06
1.34349e-06
1.34454e-06
1.34352e-06
1.34292e-06
1.34104e-06
1.34104e-06
1.34104e-06
1.34104e-06
1.34104e-06
1.34304e-06
1.34349e-06
1.34454e-06
1.34458e-06
1.34295e-06
1.34104e-06
1.34104e-06
1.34105e-06
1.34105e-06
1.34105e-06
1.34104e-06
1.34104e-06
1.34306e-06
1.34357e-06
1.34464e-06
1.34335e-06
1.34104e-06
1.34104e-06
1.34105e-06
1.34105e-06
1.34105e-06
1.34105e-06
1.34105e-06
1.34104e-06
1.34104e-06
1.34354e-06
1.34471e-06
1.34327e-06
1.34104e-06
1.34104e-06
1.34105e-06
1.34105e-06
1.34105e-06
1.34105e-06
1.34105e-06
1.34104e-06
1.34104e-06
1.34351e-06
1.34468e-06
1.34332e-06
1.34104e-06
1.34104e-06
1.34105e-06
1.34105e-06
1.34105e-06
1.34105e-06
1.34105e-06
1.34104e-06
1.34104e-06
1.34352e-06
1.34468e-06
1.34448e-06
1.34307e-06
1.34104e-06
1.34104e-06
1.34105e-06
1.34105e-06
1.34105e-06
1.34104e-06
1.34104e-06
1.34322e-06
1.34358e-06
1.34473e-06
1.3446e-06
1.34349e-06
1.34304e-06
1.34104e-06
1.34104e-06
1.34104e-06
1.34104e-06
1.34104e-06
1.34318e-06
1.34347e-06
1.34368e-06
1.34454e-06
1.34349e-06
1.34306e-06
1.34104e-06
1.34104e-06
1.34104e-06
1.34322e-06
1.34347e-06
1.34365e-06
1.34473e-06
1.34454e-06
1.34357e-06
1.34354e-06
1.34351e-06
1.34352e-06
1.34358e-06
1.34368e-06
1.34473e-06
1.34464e-06
1.34471e-06
1.34468e-06
1.34468e-06
1.34473e-06
1.33235e-06
1.33112e-06
1.33104e-06
1.33109e-06
1.33226e-06
1.33237e-06
1.33241e-06
1.3313e-06
1.33072e-06
1.32882e-06
1.32882e-06
1.32882e-06
1.33085e-06
1.33127e-06
1.33231e-06
1.3313e-06
1.33069e-06
1.32882e-06
1.32882e-06
1.32882e-06
1.32882e-06
1.32882e-06
1.33081e-06
1.33126e-06
1.33231e-06
1.33235e-06
1.33072e-06
1.32882e-06
1.32882e-06
1.32882e-06
1.32882e-06
1.32882e-06
1.32882e-06
1.32882e-06
1.33084e-06
1.33135e-06
1.33241e-06
1.33112e-06
1.32882e-06
1.32882e-06
1.32882e-06
1.32882e-06
1.32882e-06
1.32882e-06
1.32882e-06
1.32882e-06
1.32882e-06
1.33132e-06
1.33248e-06
1.33104e-06
1.32882e-06
1.32882e-06
1.32882e-06
1.32882e-06
1.32882e-06
1.32882e-06
1.32882e-06
1.32882e-06
1.32882e-06
1.33128e-06
1.33245e-06
1.33109e-06
1.32882e-06
1.32882e-06
1.32882e-06
1.32882e-06
1.32882e-06
1.32882e-06
1.32882e-06
1.32882e-06
1.32882e-06
1.3313e-06
1.33245e-06
1.33226e-06
1.33085e-06
1.32882e-06
1.32882e-06
1.32882e-06
1.32882e-06
1.32882e-06
1.32882e-06
1.32882e-06
1.33099e-06
1.33136e-06
1.3325e-06
1.33237e-06
1.33127e-06
1.33081e-06
1.32882e-06
1.32882e-06
1.32882e-06
1.32882e-06
1.32882e-06
1.33095e-06
1.33124e-06
1.33145e-06
1.33231e-06
1.33126e-06
1.33084e-06
1.32882e-06
1.32882e-06
1.32882e-06
1.33099e-06
1.33124e-06
1.33142e-06
1.3325e-06
1.33231e-06
1.33135e-06
1.33132e-06
1.33128e-06
1.3313e-06
1.33136e-06
1.33145e-06
1.3325e-06
1.33241e-06
1.33248e-06
1.33245e-06
1.33245e-06
1.3325e-06
1.32012e-06
1.3189e-06
1.31881e-06
1.31887e-06
1.32003e-06
1.32014e-06
1.32019e-06
1.31907e-06
1.3185e-06
1.31659e-06
1.31659e-06
1.31659e-06
1.31862e-06
1.31904e-06
1.32008e-06
1.31907e-06
1.31847e-06
1.31659e-06
1.31659e-06
1.31659e-06
1.31659e-06
1.31659e-06
1.31859e-06
1.31903e-06
1.32009e-06
1.32012e-06
1.3185e-06
1.31659e-06
1.31659e-06
1.31659e-06
1.31659e-06
1.31659e-06
1.31659e-06
1.31659e-06
1.31861e-06
1.31912e-06
1.32019e-06
1.3189e-06
1.31659e-06
1.31659e-06
1.31659e-06
1.31659e-06
1.31659e-06
1.31659e-06
1.31659e-06
1.31659e-06
1.31659e-06
1.31909e-06
1.32026e-06
1.31881e-06
1.31659e-06
1.31659e-06
1.31659e-06
1.31659e-06
1.31659e-06
1.31659e-06
1.31659e-06
1.31659e-06
1.31659e-06
1.31905e-06
1.32022e-06
1.31887e-06
1.31659e-06
1.31659e-06
1.31659e-06
1.31659e-06
1.31659e-06
1.31659e-06
1.31659e-06
1.31659e-06
1.31659e-06
1.31907e-06
1.32023e-06
1.32003e-06
1.31862e-06
1.31659e-06
1.31659e-06
1.31659e-06
1.31659e-06
1.31659e-06
1.31659e-06
1.31659e-06
1.31877e-06
1.31913e-06
1.32028e-06
1.32014e-06
1.31904e-06
1.31859e-06
1.31659e-06
1.31659e-06
1.31659e-06
1.31659e-06
1.31659e-06
1.31873e-06
1.31901e-06
1.31922e-06
1.32008e-06
1.31903e-06
1.31861e-06
1.31659e-06
1.31659e-06
1.31659e-06
1.31877e-06
1.31901e-06
1.3192e-06
1.32028e-06
1.32009e-06
1.31912e-06
1.31909e-06
1.31905e-06
1.31907e-06
1.31913e-06
1.31922e-06
1.32028e-06
1.32019e-06
1.32026e-06
1.32022e-06
1.32023e-06
1.32028e-06
1.3079e-06
1.30667e-06
1.30659e-06
1.30664e-06
1.3078e-06
1.30792e-06
1.30796e-06
1.30684e-06
1.30627e-06
1.30436e-06
1.30436e-06
1.30436e-06
1.30639e-06
1.30681e-06
1.30785e-06
1.30684e-06
1.30624e-06
1.30436e-06
1.30436e-06
1.30436e-06
1.30436e-06
1.30436e-06
1.30636e-06
1.30681e-06
1.30786e-06
1.3079e-06
1.30627e-06
1.30436e-06
1.30436e-06
1.30436e-06
1.30436e-06
1.30436e-06
1.30436e-06
1.30436e-06
1.30638e-06
1.30689e-06
1.30796e-06
1.30667e-06
1.30436e-06
1.30436e-06
1.30436e-06
1.30436e-06
1.30436e-06
1.30436e-06
1.30436e-06
1.30436e-06
1.30436e-06
1.30686e-06
1.30803e-06
1.30659e-06
1.30436e-06
1.30436e-06
1.30436e-06
1.30436e-06
1.30436e-06
1.30436e-06
1.30436e-06
1.30436e-06
1.30436e-06
1.30683e-06
1.308e-06
1.30664e-06
1.30436e-06
1.30436e-06
1.30436e-06
1.30436e-06
1.30436e-06
1.30436e-06
1.30436e-06
1.30436e-06
1.30436e-06
1.30684e-06
1.308e-06
1.3078e-06
1.30639e-06
1.30436e-06
1.30436e-06
1.30436e-06
1.30436e-06
1.30436e-06
1.30436e-06
1.30436e-06
1.30654e-06
1.3069e-06
1.30805e-06
1.30792e-06
1.30681e-06
1.30636e-06
1.30436e-06
1.30436e-06
1.30436e-06
1.30436e-06
1.30436e-06
1.3065e-06
1.30679e-06
1.307e-06
1.30785e-06
1.30681e-06
1.30638e-06
1.30436e-06
1.30436e-06
1.30436e-06
1.30654e-06
1.30679e-06
1.30697e-06
1.30805e-06
1.30786e-06
1.30689e-06
1.30686e-06
1.30683e-06
1.30684e-06
1.3069e-06
1.307e-06
1.30805e-06
1.30796e-06
1.30803e-06
1.308e-06
1.308e-06
1.30805e-06
1.29567e-06
1.29444e-06
1.29436e-06
1.29441e-06
1.29558e-06
1.29569e-06
1.29573e-06
1.29462e-06
1.29404e-06
1.29213e-06
1.29214e-06
1.29213e-06
1.29417e-06
1.29459e-06
1.29563e-06
1.29462e-06
1.29401e-06
1.29213e-06
1.29214e-06
1.29214e-06
1.29214e-06
1.29213e-06
1.29413e-06
1.29458e-06
1.29563e-06
1.29567e-06
1.29404e-06
1.29213e-06
1.29214e-06
1.29214e-06
1.29214e-06
1.29214e-06
1.29214e-06
1.29213e-06
1.29416e-06
1.29467e-06
1.29573e-06
1.29444e-06
1.29213e-06
1.29214e-06
1.29214e-06
1.29214e-06
1.29214e-06
1.29214e-06
1.29214e-06
1.29214e-06
1.29213e-06
1.29464e-06
1.2958e-06
1.29436e-06
1.29214e-06
1.29214e-06
1.29214e-06
1.29214e-06
1.29214e-06
1.29214e-06
1.29214e-06
1.29214e-06
1.29214e-06
1.2946e-06
1.29577e-06
1.29441e-06
1.29213e-06
1.29214e-06
1.29214e-06
1.29214e-06
1.29214e-06
1.29214e-06
1.29214e-06
1.29214e-06
1.29213e-06
1.29462e-06
1.29577e-06
1.29558e-06
1.29417e-06
1.29213e-06
1.29214e-06
1.29214e-06
1.29214e-06
1.29214e-06
1.29214e-06
1.29213e-06
1.29431e-06
1.29468e-06
1.29582e-06
1.29569e-06
1.29459e-06
1.29413e-06
1.29213e-06
1.29214e-06
1.29214e-06
1.29214e-06
1.29213e-06
1.29427e-06
1.29456e-06
1.29477e-06
1.29563e-06
1.29458e-06
1.29416e-06
1.29213e-06
1.29214e-06
1.29213e-06
1.29431e-06
1.29456e-06
1.29474e-06
1.29582e-06
1.29563e-06
1.29467e-06
1.29464e-06
1.2946e-06
1.29462e-06
1.29468e-06
1.29477e-06
1.29582e-06
1.29573e-06
1.2958e-06
1.29577e-06
1.29577e-06
1.29582e-06
1.28344e-06
1.28222e-06
1.28213e-06
1.28218e-06
1.28335e-06
1.28346e-06
1.28351e-06
1.28239e-06
1.28182e-06
1.27991e-06
1.27991e-06
1.27991e-06
1.28194e-06
1.28236e-06
1.2834e-06
1.28239e-06
1.28179e-06
1.27991e-06
1.27991e-06
1.27991e-06
1.27991e-06
1.27991e-06
1.28191e-06
1.28235e-06
1.28341e-06
1.28344e-06
1.28182e-06
1.27991e-06
1.27991e-06
1.27991e-06
1.27991e-06
1.27991e-06
1.27991e-06
1.27991e-06
1.28193e-06
1.28244e-06
1.28351e-06
1.28222e-06
1.27991e-06
1.27991e-06
1.27991e-06
1.27991e-06
1.27991e-06
1.27991e-06
1.27991e-06
1.27991e-06
1.27991e-06
1.28241e-06
1.28358e-06
1.28213e-06
1.27991e-06
1.27991e-06
1.27991e-06
1.27991e-06
1.27991e-06
1.27991e-06
1.27991e-06
1.27991e-06
1.27991e-06
1.28237e-06
1.28354e-06
1.28218e-06
1.27991e-06
1.27991e-06
1.27991e-06
1.27991e-06
1.27991e-06
1.27991e-06
1.27991e-06
1.27991e-06
1.27991e-06
1.28239e-06
1.28355e-06
1.28335e-06
1.28194e-06
1.27991e-06
1.27991e-06
1.27991e-06
1.27991e-06
1.27991e-06
1.27991e-06
1.27991e-06
1.28208e-06
1.28245e-06
1.2836e-06
1.28346e-06
1.28236e-06
1.28191e-06
1.27991e-06
1.27991e-06
1.27991e-06
1.27991e-06
1.27991e-06
1.28204e-06
1.28233e-06
1.28254e-06
1.2834e-06
1.28235e-06
1.28193e-06
1.27991e-06
1.27991e-06
1.27991e-06
1.28208e-06
1.28233e-06
1.28251e-06
1.2836e-06
1.28341e-06
1.28244e-06
1.28241e-06
1.28237e-06
1.28239e-06
1.28245e-06
1.28254e-06
1.2836e-06
1.28351e-06
1.28358e-06
1.28354e-06
1.28355e-06
1.2836e-06
1.27122e-06
1.26999e-06
1.26991e-06
1.26996e-06
1.27112e-06
1.27124e-06
1.27128e-06
1.27016e-06
1.26959e-06
1.26768e-06
1.26768e-06
1.26768e-06
1.26971e-06
1.27013e-06
1.27117e-06
1.27016e-06
1.26956e-06
1.26768e-06
1.26768e-06
1.26768e-06
1.26768e-06
1.26768e-06
1.26968e-06
1.27013e-06
1.27118e-06
1.27122e-06
1.26959e-06
1.26768e-06
1.26768e-06
1.26768e-06
1.26768e-06
1.26768e-06
1.26768e-06
1.26768e-06
1.2697e-06
1.27021e-06
1.27128e-06
1.26999e-06
1.26768e-06
1.26768e-06
1.26768e-06
1.26768e-06
1.26768e-06
1.26768e-06
1.26768e-06
1.26768e-06
1.26768e-06
1.27018e-06
1.27135e-06
1.26991e-06
1.26768e-06
1.26768e-06
1.26768e-06
1.26768e-06
1.26768e-06
1.26768e-06
1.26768e-06
1.26768e-06
1.26768e-06
1.27015e-06
1.27132e-06
1.26996e-06
1.26768e-06
1.26768e-06
1.26768e-06
1.26768e-06
1.26768e-06
1.26768e-06
1.26768e-06
1.26768e-06
1.26768e-06
1.27016e-06
1.27132e-06
1.27112e-06
1.26971e-06
1.26768e-06
1.26768e-06
1.26768e-06
1.26768e-06
1.26768e-06
1.26768e-06
1.26768e-06
1.26986e-06
1.27022e-06
1.27137e-06
1.27124e-06
1.27013e-06
1.26968e-06
1.26768e-06
1.26768e-06
1.26768e-06
1.26768e-06
1.26768e-06
1.26982e-06
1.27011e-06
1.27032e-06
1.27117e-06
1.27013e-06
1.2697e-06
1.26768e-06
1.26768e-06
1.26768e-06
1.26986e-06
1.27011e-06
1.27029e-06
1.27137e-06
1.27118e-06
1.27021e-06
1.27018e-06
1.27015e-06
1.27016e-06
1.27022e-06
1.27032e-06
1.27137e-06
1.27128e-06
1.27135e-06
1.27132e-06
1.27132e-06
1.27137e-06
1.25899e-06
1.25776e-06
1.25768e-06
1.25773e-06
1.2589e-06
1.25901e-06
1.25905e-06
1.25794e-06
1.25736e-06
1.25545e-06
1.25545e-06
1.25545e-06
1.25749e-06
1.2579e-06
1.25895e-06
1.25794e-06
1.25733e-06
1.25545e-06
1.25545e-06
1.25545e-06
1.25545e-06
1.25545e-06
1.25745e-06
1.2579e-06
1.25895e-06
1.25899e-06
1.25736e-06
1.25545e-06
1.25545e-06
1.25545e-06
1.25545e-06
1.25545e-06
1.25545e-06
1.25545e-06
1.25748e-06
1.25799e-06
1.25905e-06
1.25776e-06
1.25545e-06
1.25545e-06
1.25545e-06
1.25545e-06
1.25545e-06
1.25545e-06
1.25545e-06
1.25545e-06
1.25545e-06
1.25796e-06
1.25912e-06
1.25768e-06
1.25545e-06
1.25545e-06
1.25545e-06
1.25545e-06
1.25545e-06
1.25545e-06
1.25545e-06
1.25545e-06
1.25545e-06
1.25792e-06
1.25909e-06
1.25773e-06
1.25545e-06
1.25545e-06
1.25545e-06
1.25545e-06
1.25545e-06
1.25545e-06
1.25545e-06
1.25545e-06
1.25545e-06
1.25794e-06
1.25909e-06
1.2589e-06
1.25749e-06
1.25545e-06
1.25545e-06
1.25545e-06
1.25545e-06
1.25545e-06
1.25545e-06
1.25545e-06
1.25763e-06
1.25799e-06
1.25914e-06
1.25901e-06
1.2579e-06
1.25745e-06
1.25545e-06
1.25545e-06
1.25545e-06
1.25545e-06
1.25545e-06
1.25759e-06
1.25788e-06
1.25809e-06
1.25895e-06
1.2579e-06
1.25748e-06
1.25545e-06
1.25545e-06
1.25545e-06
1.25763e-06
1.25788e-06
1.25806e-06
1.25914e-06
1.25895e-06
1.25799e-06
1.25796e-06
1.25792e-06
1.25794e-06
1.25799e-06
1.25809e-06
1.25914e-06
1.25905e-06
1.25912e-06
1.25909e-06
1.25909e-06
1.25914e-06
1.24676e-06
1.24554e-06
1.24545e-06
1.2455e-06
1.24667e-06
1.24678e-06
1.24683e-06
1.24571e-06
1.24514e-06
1.24323e-06
1.24323e-06
1.24323e-06
1.24526e-06
1.24568e-06
1.24672e-06
1.24571e-06
1.24511e-06
1.24323e-06
1.24323e-06
1.24323e-06
1.24323e-06
1.24323e-06
1.24523e-06
1.24567e-06
1.24673e-06
1.24676e-06
1.24514e-06
1.24323e-06
1.24323e-06
1.24323e-06
1.24323e-06
1.24323e-06
1.24323e-06
1.24323e-06
1.24525e-06
1.24576e-06
1.24683e-06
1.24554e-06
1.24323e-06
1.24323e-06
1.24323e-06
1.24323e-06
1.24323e-06
1.24323e-06
1.24323e-06
1.24323e-06
1.24323e-06
1.24573e-06
1.24689e-06
1.24545e-06
1.24323e-06
1.24323e-06
1.24323e-06
1.24323e-06
1.24323e-06
1.24323e-06
1.24323e-06
1.24323e-06
1.24323e-06
1.24569e-06
1.24686e-06
1.2455e-06
1.24323e-06
1.24323e-06
1.24323e-06
1.24323e-06
1.24323e-06
1.24323e-06
1.24323e-06
1.24323e-06
1.24323e-06
1.24571e-06
1.24687e-06
1.24667e-06
1.24526e-06
1.24323e-06
1.24323e-06
1.24323e-06
1.24323e-06
1.24323e-06
1.24323e-06
1.24323e-06
1.2454e-06
1.24577e-06
1.24692e-06
1.24678e-06
1.24568e-06
1.24523e-06
1.24323e-06
1.24323e-06
1.24323e-06
1.24323e-06
1.24323e-06
1.24536e-06
1.24565e-06
1.24586e-06
1.24672e-06
1.24567e-06
1.24525e-06
1.24323e-06
1.24323e-06
1.24323e-06
1.2454e-06
1.24565e-06
1.24583e-06
1.24692e-06
1.24673e-06
1.24576e-06
1.24573e-06
1.24569e-06
1.24571e-06
1.24577e-06
1.24586e-06
1.24692e-06
1.24683e-06
1.24689e-06
1.24686e-06
1.24687e-06
1.24692e-06
1.23454e-06
1.23331e-06
1.23323e-06
1.23328e-06
1.23444e-06
1.23456e-06
1.2346e-06
1.23348e-06
1.23291e-06
1.231e-06
1.231e-06
1.231e-06
1.23303e-06
1.23345e-06
1.23449e-06
1.23348e-06
1.23288e-06
1.231e-06
1.231e-06
1.231e-06
1.231e-06
1.231e-06
1.233e-06
1.23345e-06
1.2345e-06
1.23454e-06
1.23291e-06
1.231e-06
1.231e-06
1.231e-06
1.231e-06
1.231e-06
1.231e-06
1.231e-06
1.23302e-06
1.23353e-06
1.2346e-06
1.23331e-06
1.231e-06
1.231e-06
1.231e-06
1.231e-06
1.231e-06
1.231e-06
1.231e-06
1.231e-06
1.231e-06
1.2335e-06
1.23467e-06
1.23323e-06
1.231e-06
1.231e-06
1.231e-06
1.231e-06
1.231e-06
1.231e-06
1.231e-06
1.231e-06
1.231e-06
1.23347e-06
1.23464e-06
1.23328e-06
1.231e-06
1.231e-06
1.231e-06
1.231e-06
1.231e-06
1.231e-06
1.231e-06
1.231e-06
1.231e-06
1.23348e-06
1.23464e-06
1.23444e-06
1.23303e-06
1.231e-06
1.231e-06
1.231e-06
1.231e-06
1.231e-06
1.231e-06
1.231e-06
1.23318e-06
1.23354e-06
1.23469e-06
1.23456e-06
1.23345e-06
1.233e-06
1.231e-06
1.231e-06
1.231e-06
1.231e-06
1.231e-06
1.23314e-06
1.23343e-06
1.23364e-06
1.23449e-06
1.23345e-06
1.23302e-06
1.231e-06
1.231e-06
1.231e-06
1.23318e-06
1.23343e-06
1.23361e-06
1.23469e-06
1.2345e-06
1.23353e-06
1.2335e-06
1.23347e-06
1.23348e-06
1.23354e-06
1.23364e-06
1.23469e-06
1.2346e-06
1.23467e-06
1.23464e-06
1.23464e-06
1.23469e-06
1.22231e-06
1.22108e-06
1.221e-06
1.22105e-06
1.22222e-06
1.22233e-06
1.22237e-06
1.22125e-06
1.22068e-06
1.21877e-06
1.21877e-06
1.21877e-06
1.22081e-06
1.22122e-06
1.22227e-06
1.22125e-06
1.22065e-06
1.21877e-06
1.21877e-06
1.21877e-06
1.21877e-06
1.21877e-06
1.22077e-06
1.22122e-06
1.22227e-06
1.22231e-06
1.22068e-06
1.21877e-06
1.21877e-06
1.21877e-06
1.21877e-06
1.21877e-06
1.21877e-06
1.21877e-06
1.2208e-06
1.22131e-06
1.22237e-06
1.22108e-06
1.21877e-06
1.21877e-06
1.21877e-06
1.21877e-06
1.21877e-06
1.21877e-06
1.21877e-06
1.21877e-06
1.21877e-06
1.22128e-06
1.22244e-06
1.221e-06
1.21877e-06
1.21877e-06
1.21877e-06
1.21877e-06
1.21877e-06
1.21877e-06
1.21877e-06
1.21877e-06
1.21877e-06
1.22124e-06
1.22241e-06
1.22105e-06
1.21877e-06
1.21877e-06
1.21877e-06
1.21877e-06
1.21877e-06
1.21877e-06
1.21877e-06
1.21877e-06
1.21877e-06
1.22126e-06
1.22241e-06
1.22222e-06
1.22081e-06
1.21877e-06
1.21877e-06
1.21877e-06
1.21877e-06
1.21877e-06
1.21877e-06
1.21877e-06
1.22095e-06
1.22131e-06
1.22246e-06
1.22233e-06
1.22122e-06
1.22077e-06
1.21877e-06
1.21877e-06
1.21877e-06
1.21877e-06
1.21877e-06
1.22091e-06
1.2212e-06
1.22141e-06
1.22227e-06
1.22122e-06
1.2208e-06
1.21877e-06
1.21877e-06
1.21877e-06
1.22095e-06
1.2212e-06
1.22138e-06
1.22246e-06
1.22227e-06
1.22131e-06
1.22128e-06
1.22124e-06
1.22126e-06
1.22131e-06
1.22141e-06
1.22246e-06
1.22237e-06
1.22244e-06
1.22241e-06
1.22241e-06
1.22246e-06
1.21008e-06
1.20886e-06
1.20877e-06
1.20882e-06
1.20999e-06
1.2101e-06
1.21015e-06
1.20903e-06
1.20846e-06
1.20655e-06
1.20655e-06
1.20655e-06
1.20858e-06
1.209e-06
1.21004e-06
1.20903e-06
1.20843e-06
1.20655e-06
1.20655e-06
1.20655e-06
1.20655e-06
1.20655e-06
1.20855e-06
1.20899e-06
1.21005e-06
1.21008e-06
1.20846e-06
1.20655e-06
1.20655e-06
1.20655e-06
1.20655e-06
1.20655e-06
1.20655e-06
1.20655e-06
1.20857e-06
1.20908e-06
1.21015e-06
1.20886e-06
1.20655e-06
1.20655e-06
1.20655e-06
1.20655e-06
1.20655e-06
1.20655e-06
1.20655e-06
1.20655e-06
1.20655e-06
1.20905e-06
1.21021e-06
1.20877e-06
1.20655e-06
1.20655e-06
1.20655e-06
1.20655e-06
1.20655e-06
1.20655e-06
1.20655e-06
1.20655e-06
1.20655e-06
1.20901e-06
1.21018e-06
1.20882e-06
1.20655e-06
1.20655e-06
1.20655e-06
1.20655e-06
1.20655e-06
1.20655e-06
1.20655e-06
1.20655e-06
1.20655e-06
1.20903e-06
1.21019e-06
1.20999e-06