/*--------------------------------*- C++ -*----------------------------------*\
| =========                 |                                                 |
| \\      /  F ield         | OpenFOAM: The Open Source CFD Toolbox           |
|  \\    /   O peration     | Version:  v2012                                 |
|   \\  /    A nd           | Website:  www.openfoam.com                      |
|    \\/     M anipulation  |                                                 |
\*---------------------------------------------------------------------------*/
FoamFile
{
    version     2.0;
    format      ascii;
    class       volScalarField;
    location    "49";
    object      p;
}
// * * * * * * * * * * * * * * * * * * * * * * * * * * * * * * * * * * * * * //

dimensions      [0 2 -2 0 0 0 0];


internalField   nonuniform List<scalar> 
292667
(
1.2051e-06
1.19564e-06
1.19488e-06
1.19495e-06
1.19599e-06
1.20601e-06
1.19585e-06
1.19319e-06
1.19163e-06
1.19099e-06
1.19107e-06
1.19191e-06
1.1937e-06
1.19661e-06
1.19585e-06
1.1924e-06
1.19026e-06
1.18908e-06
1.18858e-06
1.18864e-06
1.18929e-06
1.19066e-06
1.19309e-06
1.19684e-06
1.2051e-06
1.19319e-06
1.19026e-06
1.18852e-06
1.18755e-06
1.18713e-06
1.18719e-06
1.18773e-06
1.18886e-06
1.19083e-06
1.19412e-06
1.20476e-06
1.19564e-06
1.19163e-06
1.18908e-06
1.18755e-06
1.18668e-06
1.1863e-06
1.18636e-06
1.18684e-06
1.18785e-06
1.18959e-06
1.19248e-06
1.19931e-06
1.19488e-06
1.19099e-06
1.18858e-06
1.18713e-06
1.1863e-06
1.18595e-06
1.186e-06
1.18646e-06
1.18742e-06
1.18907e-06
1.19181e-06
1.19764e-06
1.19495e-06
1.19107e-06
1.18864e-06
1.18719e-06
1.18636e-06
1.186e-06
1.18605e-06
1.18652e-06
1.18748e-06
1.18914e-06
1.19191e-06
1.19796e-06
1.19599e-06
1.19191e-06
1.18929e-06
1.18773e-06
1.18684e-06
1.18646e-06
1.18652e-06
1.18701e-06
1.18804e-06
1.18983e-06
1.1928e-06
1.19963e-06
1.20601e-06
1.1937e-06
1.19066e-06
1.18886e-06
1.18785e-06
1.18742e-06
1.18748e-06
1.18804e-06
1.18922e-06
1.19129e-06
1.19469e-06
1.20466e-06
1.19661e-06
1.19309e-06
1.19083e-06
1.18959e-06
1.18907e-06
1.18914e-06
1.18983e-06
1.19129e-06
1.19385e-06
1.20026e-06
1.19684e-06
1.19412e-06
1.19248e-06
1.19181e-06
1.19191e-06
1.1928e-06
1.19469e-06
1.20026e-06
1.20476e-06
1.19931e-06
1.19765e-06
1.19796e-06
1.19963e-06
1.20467e-06
1.17846e-06
1.1776e-06
1.17757e-06
1.17761e-06
1.17844e-06
1.17834e-06
1.17852e-06
1.17783e-06
1.17745e-06
1.17604e-06
1.17602e-06
1.17604e-06
1.17761e-06
1.17787e-06
1.17853e-06
1.17783e-06
1.17744e-06
1.17609e-06
1.17602e-06
1.17608e-06
1.17602e-06
1.17609e-06
1.17758e-06
1.17785e-06
1.17851e-06
1.17846e-06
1.17745e-06
1.17609e-06
1.17602e-06
1.17606e-06
1.17604e-06
1.17606e-06
1.17602e-06
1.17609e-06
1.17757e-06
1.17786e-06
1.17858e-06
1.1776e-06
1.17604e-06
1.17602e-06
1.17606e-06
1.17602e-06
1.17602e-06
1.17602e-06
1.17606e-06
1.17603e-06
1.17604e-06
1.178e-06
1.1787e-06
1.17757e-06
1.17602e-06
1.17608e-06
1.17605e-06
1.17602e-06
1.17602e-06
1.17602e-06
1.17605e-06
1.17608e-06
1.17602e-06
1.17802e-06
1.17859e-06
1.17761e-06
1.17604e-06
1.17602e-06
1.17606e-06
1.17602e-06
1.17602e-06
1.17602e-06
1.17606e-06
1.17602e-06
1.17604e-06
1.17802e-06
1.17862e-06
1.17844e-06
1.17761e-06
1.17609e-06
1.17602e-06
1.17606e-06
1.17605e-06
1.17606e-06
1.17602e-06
1.17609e-06
1.17775e-06
1.17792e-06
1.17866e-06
1.17834e-06
1.17787e-06
1.17758e-06
1.17609e-06
1.17603e-06
1.17608e-06
1.17603e-06
1.17609e-06
1.17771e-06
1.17789e-06
1.17791e-06
1.17853e-06
1.17785e-06
1.17757e-06
1.17604e-06
1.17602e-06
1.17604e-06
1.17775e-06
1.17789e-06
1.17796e-06
1.17864e-06
1.17851e-06
1.17786e-06
1.178e-06
1.17802e-06
1.17802e-06
1.17792e-06
1.17791e-06
1.17864e-06
1.17858e-06
1.1787e-06
1.17859e-06
1.17862e-06
1.17866e-06
1.16844e-06
1.16756e-06
1.1675e-06
1.16754e-06
1.16842e-06
1.16847e-06
1.16847e-06
1.1677e-06
1.16725e-06
1.16587e-06
1.16587e-06
1.16587e-06
1.1674e-06
1.16772e-06
1.16844e-06
1.1677e-06
1.16724e-06
1.16592e-06
1.16592e-06
1.16596e-06
1.16592e-06
1.16592e-06
1.16741e-06
1.16772e-06
1.16844e-06
1.16844e-06
1.16725e-06
1.16592e-06
1.16594e-06
1.16599e-06
1.16599e-06
1.16599e-06
1.16594e-06
1.16592e-06
1.16741e-06
1.16777e-06
1.16849e-06
1.16756e-06
1.16587e-06
1.16592e-06
1.16599e-06
1.166e-06
1.16602e-06
1.166e-06
1.16599e-06
1.16592e-06
1.16587e-06
1.16782e-06
1.16862e-06
1.1675e-06
1.16587e-06
1.16596e-06
1.16599e-06
1.16602e-06
1.16603e-06
1.16602e-06
1.16599e-06
1.16596e-06
1.16587e-06
1.16782e-06
1.16862e-06
1.16754e-06
1.16587e-06
1.16592e-06
1.16599e-06
1.166e-06
1.16602e-06
1.166e-06
1.16599e-06
1.16592e-06
1.16587e-06
1.16782e-06
1.16862e-06
1.16842e-06
1.1674e-06
1.16592e-06
1.16594e-06
1.16599e-06
1.16599e-06
1.16599e-06
1.16594e-06
1.16592e-06
1.1676e-06
1.16781e-06
1.16862e-06
1.16847e-06
1.16772e-06
1.16741e-06
1.16592e-06
1.16592e-06
1.16596e-06
1.16592e-06
1.16592e-06
1.16758e-06
1.16775e-06
1.16785e-06
1.16844e-06
1.16772e-06
1.16741e-06
1.16587e-06
1.16587e-06
1.16587e-06
1.1676e-06
1.16775e-06
1.16783e-06
1.1686e-06
1.16844e-06
1.16777e-06
1.16782e-06
1.16782e-06
1.16782e-06
1.16781e-06
1.16785e-06
1.1686e-06
1.16849e-06
1.16862e-06
1.16862e-06
1.16862e-06
1.16862e-06
1.15845e-06
1.15756e-06
1.15749e-06
1.15754e-06
1.15843e-06
1.15848e-06
1.15848e-06
1.15769e-06
1.15722e-06
1.15583e-06
1.15583e-06
1.15583e-06
1.15737e-06
1.1577e-06
1.15845e-06
1.15769e-06
1.1572e-06
1.15585e-06
1.15587e-06
1.15589e-06
1.15587e-06
1.15585e-06
1.15736e-06
1.1577e-06
1.15846e-06
1.15845e-06
1.15722e-06
1.15585e-06
1.15588e-06
1.15591e-06
1.15591e-06
1.15591e-06
1.15588e-06
1.15585e-06
1.15737e-06
1.15777e-06
1.1585e-06
1.15756e-06
1.15583e-06
1.15587e-06
1.15591e-06
1.15593e-06
1.15595e-06
1.15593e-06
1.15591e-06
1.15587e-06
1.15583e-06
1.15781e-06
1.15863e-06
1.15749e-06
1.15583e-06
1.15589e-06
1.15592e-06
1.15595e-06
1.15595e-06
1.15595e-06
1.15592e-06
1.15589e-06
1.15583e-06
1.15779e-06
1.15863e-06
1.15754e-06
1.15583e-06
1.15587e-06
1.15591e-06
1.15593e-06
1.15595e-06
1.15593e-06
1.15591e-06
1.15587e-06
1.15583e-06
1.1578e-06
1.15863e-06
1.15843e-06
1.15737e-06
1.15585e-06
1.15588e-06
1.15591e-06
1.15592e-06
1.15591e-06
1.15588e-06
1.15585e-06
1.15757e-06
1.15781e-06
1.15863e-06
1.15848e-06
1.1577e-06
1.15736e-06
1.15585e-06
1.15587e-06
1.15589e-06
1.15587e-06
1.15585e-06
1.15755e-06
1.15773e-06
1.15786e-06
1.15845e-06
1.1577e-06
1.15737e-06
1.15583e-06
1.15583e-06
1.15583e-06
1.15757e-06
1.15773e-06
1.15784e-06
1.15861e-06
1.15846e-06
1.15777e-06
1.15781e-06
1.15779e-06
1.1578e-06
1.15781e-06
1.15786e-06
1.15861e-06
1.1585e-06
1.15863e-06
1.15863e-06
1.15863e-06
1.15863e-06
1.14846e-06
1.14757e-06
1.1475e-06
1.14755e-06
1.14844e-06
1.14849e-06
1.14849e-06
1.14769e-06
1.14722e-06
1.14581e-06
1.14582e-06
1.14582e-06
1.14737e-06
1.1477e-06
1.14846e-06
1.14769e-06
1.14719e-06
1.14583e-06
1.14584e-06
1.14585e-06
1.14584e-06
1.14583e-06
1.14735e-06
1.1477e-06
1.14847e-06
1.14846e-06
1.14722e-06
1.14583e-06
1.14585e-06
1.14587e-06
1.14587e-06
1.14587e-06
1.14585e-06
1.14583e-06
1.14737e-06
1.14778e-06
1.14851e-06
1.14757e-06
1.14582e-06
1.14584e-06
1.14587e-06
1.14588e-06
1.14589e-06
1.14588e-06
1.14587e-06
1.14584e-06
1.14581e-06
1.14781e-06
1.14864e-06
1.1475e-06
1.14582e-06
1.14585e-06
1.14587e-06
1.14589e-06
1.14589e-06
1.14589e-06
1.14587e-06
1.14585e-06
1.14582e-06
1.1478e-06
1.14864e-06
1.14755e-06
1.14582e-06
1.14584e-06
1.14587e-06
1.14588e-06
1.14589e-06
1.14588e-06
1.14587e-06
1.14584e-06
1.14582e-06
1.1478e-06
1.14864e-06
1.14844e-06
1.14737e-06
1.14583e-06
1.14585e-06
1.14587e-06
1.14587e-06
1.14587e-06
1.14585e-06
1.14583e-06
1.14757e-06
1.14782e-06
1.14864e-06
1.14849e-06
1.1477e-06
1.14735e-06
1.14583e-06
1.14584e-06
1.14585e-06
1.14584e-06
1.14583e-06
1.14754e-06
1.14773e-06
1.14787e-06
1.14846e-06
1.1477e-06
1.14737e-06
1.14582e-06
1.14582e-06
1.14582e-06
1.14757e-06
1.14773e-06
1.14785e-06
1.14863e-06
1.14847e-06
1.14778e-06
1.14781e-06
1.1478e-06
1.1478e-06
1.14782e-06
1.14787e-06
1.14863e-06
1.14851e-06
1.14864e-06
1.14864e-06
1.14864e-06
1.14864e-06
1.13847e-06
1.13757e-06
1.1375e-06
1.13755e-06
1.13845e-06
1.1385e-06
1.1385e-06
1.1377e-06
1.13722e-06
1.13581e-06
1.13581e-06
1.13581e-06
1.13737e-06
1.13771e-06
1.13847e-06
1.1377e-06
1.13719e-06
1.13582e-06
1.13583e-06
1.13583e-06
1.13583e-06
1.13582e-06
1.13735e-06
1.1377e-06
1.13848e-06
1.13847e-06
1.13722e-06
1.13582e-06
1.13583e-06
1.13584e-06
1.13584e-06
1.13584e-06
1.13583e-06
1.13582e-06
1.13737e-06
1.13779e-06
1.13852e-06
1.13757e-06
1.13581e-06
1.13583e-06
1.13584e-06
1.13585e-06
1.13586e-06
1.13585e-06
1.13584e-06
1.13583e-06
1.13581e-06
1.13782e-06
1.13865e-06
1.1375e-06
1.13581e-06
1.13583e-06
1.13584e-06
1.13586e-06
1.13586e-06
1.13586e-06
1.13584e-06
1.13583e-06
1.13581e-06
1.1378e-06
1.13865e-06
1.13755e-06
1.13581e-06
1.13583e-06
1.13584e-06
1.13585e-06
1.13586e-06
1.13585e-06
1.13584e-06
1.13583e-06
1.13581e-06
1.13781e-06
1.13865e-06
1.13845e-06
1.13737e-06
1.13582e-06
1.13583e-06
1.13584e-06
1.13584e-06
1.13584e-06
1.13583e-06
1.13582e-06
1.13757e-06
1.13782e-06
1.13865e-06
1.1385e-06
1.13771e-06
1.13735e-06
1.13582e-06
1.13583e-06
1.13583e-06
1.13583e-06
1.13582e-06
1.13754e-06
1.13774e-06
1.13788e-06
1.13847e-06
1.1377e-06
1.13737e-06
1.13581e-06
1.13581e-06
1.13581e-06
1.13757e-06
1.13774e-06
1.13786e-06
1.13863e-06
1.13848e-06
1.13779e-06
1.13782e-06
1.1378e-06
1.13781e-06
1.13782e-06
1.13788e-06
1.13863e-06
1.13852e-06
1.13865e-06
1.13865e-06
1.13865e-06
1.13865e-06
1.12847e-06
1.12758e-06
1.12751e-06
1.12756e-06
1.12845e-06
1.12851e-06
1.12851e-06
1.12771e-06
1.12723e-06
1.12581e-06
1.12582e-06
1.12581e-06
1.12737e-06
1.12771e-06
1.12848e-06
1.12771e-06
1.12719e-06
1.12582e-06
1.12582e-06
1.12582e-06
1.12582e-06
1.12582e-06
1.12735e-06
1.12771e-06
1.12848e-06
1.12847e-06
1.12723e-06
1.12582e-06
1.12582e-06
1.12583e-06
1.12583e-06
1.12583e-06
1.12582e-06
1.12582e-06
1.12737e-06
1.12779e-06
1.12853e-06
1.12758e-06
1.12581e-06
1.12582e-06
1.12583e-06
1.12584e-06
1.12584e-06
1.12584e-06
1.12583e-06
1.12582e-06
1.12581e-06
1.12782e-06
1.12865e-06
1.12751e-06
1.12582e-06
1.12582e-06
1.12583e-06
1.12584e-06
1.12584e-06
1.12584e-06
1.12583e-06
1.12582e-06
1.12582e-06
1.1278e-06
1.12866e-06
1.12756e-06
1.12581e-06
1.12582e-06
1.12583e-06
1.12584e-06
1.12584e-06
1.12584e-06
1.12583e-06
1.12582e-06
1.12581e-06
1.12781e-06
1.12866e-06
1.12845e-06
1.12737e-06
1.12582e-06
1.12582e-06
1.12583e-06
1.12583e-06
1.12583e-06
1.12582e-06
1.12582e-06
1.12758e-06
1.12783e-06
1.12866e-06
1.12851e-06
1.12771e-06
1.12735e-06
1.12582e-06
1.12582e-06
1.12582e-06
1.12582e-06
1.12582e-06
1.12754e-06
1.12774e-06
1.12789e-06
1.12848e-06
1.12771e-06
1.12737e-06
1.12581e-06
1.12582e-06
1.12581e-06
1.12758e-06
1.12774e-06
1.12786e-06
1.12864e-06
1.12848e-06
1.12779e-06
1.12782e-06
1.1278e-06
1.12781e-06
1.12783e-06
1.12789e-06
1.12864e-06
1.12853e-06
1.12865e-06
1.12866e-06
1.12866e-06
1.12866e-06
1.11848e-06
1.11758e-06
1.11752e-06
1.11756e-06
1.11846e-06
1.11851e-06
1.11851e-06
1.11771e-06
1.11723e-06
1.11582e-06
1.11582e-06
1.11582e-06
1.11738e-06
1.11772e-06
1.11849e-06
1.11771e-06
1.1172e-06
1.11582e-06
1.11582e-06
1.11582e-06
1.11582e-06
1.11582e-06
1.11735e-06
1.11771e-06
1.11849e-06
1.11848e-06
1.11723e-06
1.11582e-06
1.11582e-06
1.11583e-06
1.11583e-06
1.11583e-06
1.11582e-06
1.11582e-06
1.11738e-06
1.1178e-06
1.11853e-06
1.11758e-06
1.11582e-06
1.11582e-06
1.11583e-06
1.11583e-06
1.11583e-06
1.11583e-06
1.11583e-06
1.11582e-06
1.11582e-06
1.11783e-06
1.11866e-06
1.11752e-06
1.11582e-06
1.11582e-06
1.11583e-06
1.11583e-06
1.11583e-06
1.11583e-06
1.11583e-06
1.11582e-06
1.11582e-06
1.11781e-06
1.11866e-06
1.11756e-06
1.11582e-06
1.11582e-06
1.11583e-06
1.11583e-06
1.11583e-06
1.11583e-06
1.11583e-06
1.11582e-06
1.11582e-06
1.11782e-06
1.11866e-06
1.11846e-06
1.11738e-06
1.11582e-06
1.11582e-06
1.11583e-06
1.11583e-06
1.11583e-06
1.11582e-06
1.11582e-06
1.11758e-06
1.11783e-06
1.11866e-06
1.11851e-06
1.11772e-06
1.11735e-06
1.11582e-06
1.11582e-06
1.11582e-06
1.11582e-06
1.11582e-06
1.11755e-06
1.11775e-06
1.1179e-06
1.11849e-06
1.11771e-06
1.11738e-06
1.11582e-06
1.11582e-06
1.11582e-06
1.11758e-06
1.11775e-06
1.11787e-06
1.11865e-06
1.11849e-06
1.1178e-06
1.11783e-06
1.11781e-06
1.11782e-06
1.11783e-06
1.1179e-06
1.11865e-06
1.11853e-06
1.11866e-06
1.11866e-06
1.11866e-06
1.11866e-06
1.10849e-06
1.10759e-06
1.10752e-06
1.10757e-06
1.10846e-06
1.10852e-06
1.10852e-06
1.10772e-06
1.10724e-06
1.10582e-06
1.10582e-06
1.10582e-06
1.10738e-06
1.10772e-06
1.10849e-06
1.10772e-06
1.1072e-06
1.10582e-06
1.10583e-06
1.10583e-06
1.10583e-06
1.10582e-06
1.10736e-06
1.10772e-06
1.1085e-06
1.10849e-06
1.10724e-06
1.10582e-06
1.10583e-06
1.10583e-06
1.10583e-06
1.10583e-06
1.10583e-06
1.10582e-06
1.10738e-06
1.1078e-06
1.10854e-06
1.10759e-06
1.10582e-06
1.10583e-06
1.10583e-06
1.10583e-06
1.10583e-06
1.10583e-06
1.10583e-06
1.10583e-06
1.10582e-06
1.10783e-06
1.10867e-06
1.10752e-06
1.10582e-06
1.10583e-06
1.10583e-06
1.10583e-06
1.10583e-06
1.10583e-06
1.10583e-06
1.10583e-06
1.10582e-06
1.10781e-06
1.10867e-06
1.10757e-06
1.10582e-06
1.10583e-06
1.10583e-06
1.10583e-06
1.10583e-06
1.10583e-06
1.10583e-06
1.10583e-06
1.10582e-06
1.10782e-06
1.10867e-06
1.10846e-06
1.10738e-06
1.10582e-06
1.10583e-06
1.10583e-06
1.10583e-06
1.10583e-06
1.10583e-06
1.10582e-06
1.10759e-06
1.10784e-06
1.10867e-06
1.10852e-06
1.10772e-06
1.10736e-06
1.10582e-06
1.10583e-06
1.10583e-06
1.10583e-06
1.10582e-06
1.10755e-06
1.10775e-06
1.1079e-06
1.10849e-06
1.10772e-06
1.10738e-06
1.10582e-06
1.10582e-06
1.10582e-06
1.10759e-06
1.10775e-06
1.10788e-06
1.10865e-06
1.1085e-06
1.1078e-06
1.10783e-06
1.10781e-06
1.10782e-06
1.10784e-06
1.1079e-06
1.10865e-06
1.10854e-06
1.10867e-06
1.10867e-06
1.10867e-06
1.10867e-06
1.09849e-06
1.0976e-06
1.09753e-06
1.09758e-06
1.09847e-06
1.09852e-06
1.09852e-06
1.09772e-06
1.09724e-06
1.09583e-06
1.09583e-06
1.09583e-06
1.09739e-06
1.09773e-06
1.0985e-06
1.09772e-06
1.09721e-06
1.09583e-06
1.09583e-06
1.09583e-06
1.09583e-06
1.09583e-06
1.09736e-06
1.09773e-06
1.0985e-06
1.09849e-06
1.09724e-06
1.09583e-06
1.09583e-06
1.09583e-06
1.09583e-06
1.09583e-06
1.09583e-06
1.09583e-06
1.09739e-06
1.09781e-06
1.09855e-06
1.0976e-06
1.09583e-06
1.09583e-06
1.09583e-06
1.09583e-06
1.09583e-06
1.09583e-06
1.09583e-06
1.09583e-06
1.09583e-06
1.09784e-06
1.09867e-06
1.09753e-06
1.09583e-06
1.09583e-06
1.09583e-06
1.09583e-06
1.09583e-06
1.09583e-06
1.09583e-06
1.09583e-06
1.09583e-06
1.09782e-06
1.09867e-06
1.09758e-06
1.09583e-06
1.09583e-06
1.09583e-06
1.09583e-06
1.09583e-06
1.09583e-06
1.09583e-06
1.09583e-06
1.09583e-06
1.09783e-06
1.09868e-06
1.09847e-06
1.09739e-06
1.09583e-06
1.09583e-06
1.09583e-06
1.09583e-06
1.09583e-06
1.09583e-06
1.09583e-06
1.09759e-06
1.09785e-06
1.09867e-06
1.09852e-06
1.09773e-06
1.09736e-06
1.09583e-06
1.09583e-06
1.09583e-06
1.09583e-06
1.09583e-06
1.09756e-06
1.09776e-06
1.09791e-06
1.0985e-06
1.09773e-06
1.09739e-06
1.09583e-06
1.09583e-06
1.09583e-06
1.09759e-06
1.09776e-06
1.09788e-06
1.09866e-06
1.0985e-06
1.09781e-06
1.09784e-06
1.09782e-06
1.09783e-06
1.09785e-06
1.09791e-06
1.09866e-06
1.09855e-06
1.09867e-06
1.09867e-06
1.09868e-06
1.09867e-06
1.0885e-06
1.0876e-06
1.08753e-06
1.08758e-06
1.08848e-06
1.08853e-06
1.08853e-06
1.08773e-06
1.08725e-06
1.08583e-06
1.08583e-06
1.08583e-06
1.08739e-06
1.08773e-06
1.0885e-06
1.08773e-06
1.08721e-06
1.08583e-06
1.08584e-06
1.08583e-06
1.08584e-06
1.08583e-06
1.08737e-06
1.08773e-06
1.08851e-06
1.0885e-06
1.08725e-06
1.08583e-06
1.08583e-06
1.08584e-06
1.08584e-06
1.08584e-06
1.08583e-06
1.08583e-06
1.08739e-06
1.08781e-06
1.08855e-06
1.0876e-06
1.08583e-06
1.08584e-06
1.08584e-06
1.08584e-06
1.08584e-06
1.08584e-06
1.08584e-06
1.08584e-06
1.08583e-06
1.08784e-06
1.08868e-06
1.08753e-06
1.08583e-06
1.08583e-06
1.08584e-06
1.08584e-06
1.08584e-06
1.08584e-06
1.08584e-06
1.08583e-06
1.08583e-06
1.08783e-06
1.08868e-06
1.08758e-06
1.08583e-06
1.08584e-06
1.08584e-06
1.08584e-06
1.08584e-06
1.08584e-06
1.08584e-06
1.08584e-06
1.08583e-06
1.08783e-06
1.08868e-06
1.08848e-06
1.08739e-06
1.08583e-06
1.08584e-06
1.08584e-06
1.08584e-06
1.08584e-06
1.08583e-06
1.08583e-06
1.0876e-06
1.08785e-06
1.08868e-06
1.08853e-06
1.08773e-06
1.08737e-06
1.08583e-06
1.08584e-06
1.08583e-06
1.08584e-06
1.08583e-06
1.08756e-06
1.08777e-06
1.08791e-06
1.0885e-06
1.08773e-06
1.08739e-06
1.08583e-06
1.08583e-06
1.08583e-06
1.0876e-06
1.08777e-06
1.08789e-06
1.08866e-06
1.08851e-06
1.08781e-06
1.08784e-06
1.08783e-06
1.08783e-06
1.08785e-06
1.08791e-06
1.08866e-06
1.08855e-06
1.08868e-06
1.08868e-06
1.08868e-06
1.08868e-06
1.0785e-06
1.07761e-06
1.07754e-06
1.07759e-06
1.07848e-06
1.07854e-06
1.07854e-06
1.07773e-06
1.07725e-06
1.07584e-06
1.07584e-06
1.07584e-06
1.0774e-06
1.07774e-06
1.07851e-06
1.07773e-06
1.07722e-06
1.07584e-06
1.07584e-06
1.07584e-06
1.07584e-06
1.07584e-06
1.07738e-06
1.07774e-06
1.07851e-06
1.0785e-06
1.07725e-06
1.07584e-06
1.07584e-06
1.07584e-06
1.07584e-06
1.07584e-06
1.07584e-06
1.07584e-06
1.0774e-06
1.07782e-06
1.07856e-06
1.07761e-06
1.07584e-06
1.07584e-06
1.07584e-06
1.07584e-06
1.07584e-06
1.07584e-06
1.07584e-06
1.07584e-06
1.07584e-06
1.07785e-06
1.07868e-06
1.07754e-06
1.07584e-06
1.07584e-06
1.07584e-06
1.07584e-06
1.07584e-06
1.07584e-06
1.07584e-06
1.07584e-06
1.07584e-06
1.07783e-06
1.07869e-06
1.07759e-06
1.07584e-06
1.07584e-06
1.07584e-06
1.07584e-06
1.07584e-06
1.07584e-06
1.07584e-06
1.07584e-06
1.07584e-06
1.07784e-06
1.07869e-06
1.07848e-06
1.0774e-06
1.07584e-06
1.07584e-06
1.07584e-06
1.07584e-06
1.07584e-06
1.07584e-06
1.07584e-06
1.0776e-06
1.07786e-06
1.07868e-06
1.07854e-06
1.07774e-06
1.07738e-06
1.07584e-06
1.07584e-06
1.07584e-06
1.07584e-06
1.07584e-06
1.07757e-06
1.07777e-06
1.07792e-06
1.07851e-06
1.07774e-06
1.0774e-06
1.07584e-06
1.07584e-06
1.07584e-06
1.0776e-06
1.07777e-06
1.07789e-06
1.07867e-06
1.07851e-06
1.07782e-06
1.07785e-06
1.07783e-06
1.07784e-06
1.07786e-06
1.07792e-06
1.07867e-06
1.07856e-06
1.07868e-06
1.07869e-06
1.07869e-06
1.07868e-06
1.06851e-06
1.06761e-06
1.06754e-06
1.06759e-06
1.06849e-06
1.06854e-06
1.06854e-06
1.06774e-06
1.06726e-06
1.06584e-06
1.06584e-06
1.06584e-06
1.0674e-06
1.06774e-06
1.06851e-06
1.06774e-06
1.06722e-06
1.06584e-06
1.06585e-06
1.06585e-06
1.06585e-06
1.06584e-06
1.06738e-06
1.06774e-06
1.06852e-06
1.06851e-06
1.06726e-06
1.06584e-06
1.06585e-06
1.06584e-06
1.06585e-06
1.06584e-06
1.06585e-06
1.06584e-06
1.0674e-06
1.06783e-06
1.06856e-06
1.06761e-06
1.06584e-06
1.06585e-06
1.06584e-06
1.06585e-06
1.06585e-06
1.06585e-06
1.06584e-06
1.06585e-06
1.06584e-06
1.06785e-06
1.06869e-06
1.06754e-06
1.06584e-06
1.06585e-06
1.06585e-06
1.06585e-06
1.06585e-06
1.06585e-06
1.06585e-06
1.06585e-06
1.06584e-06
1.06784e-06
1.06869e-06
1.06759e-06
1.06584e-06
1.06585e-06
1.06584e-06
1.06585e-06
1.06585e-06
1.06585e-06
1.06584e-06
1.06585e-06
1.06584e-06
1.06784e-06
1.06869e-06
1.06849e-06
1.0674e-06
1.06584e-06
1.06585e-06
1.06584e-06
1.06585e-06
1.06584e-06
1.06585e-06
1.06584e-06
1.06761e-06
1.06786e-06
1.06869e-06
1.06854e-06
1.06774e-06
1.06738e-06
1.06584e-06
1.06585e-06
1.06585e-06
1.06585e-06
1.06584e-06
1.06757e-06
1.06778e-06
1.06792e-06
1.06851e-06
1.06774e-06
1.0674e-06
1.06584e-06
1.06584e-06
1.06584e-06
1.06761e-06
1.06778e-06
1.0679e-06
1.06868e-06
1.06852e-06
1.06783e-06
1.06785e-06
1.06784e-06
1.06784e-06
1.06786e-06
1.06792e-06
1.06868e-06
1.06856e-06
1.06869e-06
1.06869e-06
1.06869e-06
1.06869e-06
1.05851e-06
1.05762e-06
1.05755e-06
1.0576e-06
1.05849e-06
1.05855e-06
1.05855e-06
1.05775e-06
1.05726e-06
1.05585e-06
1.05585e-06
1.05585e-06
1.05741e-06
1.05775e-06
1.05852e-06
1.05775e-06
1.05723e-06
1.05585e-06
1.05585e-06
1.05585e-06
1.05585e-06
1.05585e-06
1.05739e-06
1.05775e-06
1.05852e-06
1.05851e-06
1.05726e-06
1.05585e-06
1.05585e-06
1.05585e-06
1.05585e-06
1.05585e-06
1.05585e-06
1.05585e-06
1.05741e-06
1.05783e-06
1.05857e-06
1.05762e-06
1.05585e-06
1.05585e-06
1.05585e-06
1.05585e-06
1.05585e-06
1.05585e-06
1.05585e-06
1.05585e-06
1.05585e-06
1.05786e-06
1.05869e-06
1.05755e-06
1.05585e-06
1.05585e-06
1.05585e-06
1.05585e-06
1.05585e-06
1.05585e-06
1.05585e-06
1.05585e-06
1.05585e-06
1.05784e-06
1.0587e-06
1.0576e-06
1.05585e-06
1.05585e-06
1.05585e-06
1.05585e-06
1.05585e-06
1.05585e-06
1.05585e-06
1.05585e-06
1.05585e-06
1.05785e-06
1.0587e-06
1.05849e-06
1.05741e-06
1.05585e-06
1.05585e-06
1.05585e-06
1.05585e-06
1.05585e-06
1.05585e-06
1.05585e-06
1.05761e-06
1.05787e-06
1.05869e-06
1.05855e-06
1.05775e-06
1.05739e-06
1.05585e-06
1.05585e-06
1.05585e-06
1.05585e-06
1.05585e-06
1.05758e-06
1.05778e-06
1.05793e-06
1.05852e-06
1.05775e-06
1.05741e-06
1.05585e-06
1.05585e-06
1.05585e-06
1.05761e-06
1.05778e-06
1.0579e-06
1.05868e-06
1.05852e-06
1.05783e-06
1.05786e-06
1.05784e-06
1.05785e-06
1.05787e-06
1.05793e-06
1.05868e-06
1.05857e-06
1.05869e-06
1.0587e-06
1.0587e-06
1.05869e-06
1.04852e-06
1.04762e-06
1.04755e-06
1.0476e-06
1.0485e-06
1.04855e-06
1.04855e-06
1.04775e-06
1.04727e-06
1.04586e-06
1.04586e-06
1.04586e-06
1.04742e-06
1.04776e-06
1.04853e-06
1.04775e-06
1.04723e-06
1.04586e-06
1.04586e-06
1.04586e-06
1.04586e-06
1.04586e-06
1.04739e-06
1.04775e-06
1.04853e-06
1.04852e-06
1.04727e-06
1.04586e-06
1.04586e-06
1.04586e-06
1.04586e-06
1.04586e-06
1.04586e-06
1.04586e-06
1.04742e-06
1.04784e-06
1.04857e-06
1.04762e-06
1.04586e-06
1.04586e-06
1.04586e-06
1.04586e-06
1.04586e-06
1.04586e-06
1.04586e-06
1.04586e-06
1.04586e-06
1.04786e-06
1.0487e-06
1.04755e-06
1.04586e-06
1.04586e-06
1.04586e-06
1.04586e-06
1.04586e-06
1.04586e-06
1.04586e-06
1.04586e-06
1.04586e-06
1.04785e-06
1.0487e-06
1.0476e-06
1.04586e-06
1.04586e-06
1.04586e-06
1.04586e-06
1.04586e-06
1.04586e-06
1.04586e-06
1.04586e-06
1.04586e-06
1.04786e-06
1.0487e-06
1.0485e-06
1.04742e-06
1.04586e-06
1.04586e-06
1.04586e-06
1.04586e-06
1.04586e-06
1.04586e-06
1.04586e-06
1.04762e-06
1.04787e-06
1.0487e-06
1.04855e-06
1.04776e-06
1.04739e-06
1.04586e-06
1.04586e-06
1.04586e-06
1.04586e-06
1.04586e-06
1.04758e-06
1.04779e-06
1.04793e-06
1.04853e-06
1.04775e-06
1.04742e-06
1.04586e-06
1.04586e-06
1.04586e-06
1.04762e-06
1.04779e-06
1.04791e-06
1.04869e-06
1.04853e-06
1.04784e-06
1.04786e-06
1.04785e-06
1.04785e-06
1.04787e-06
1.04793e-06
1.04869e-06
1.04857e-06
1.0487e-06
1.0487e-06
1.0487e-06
1.0487e-06
1.03852e-06
1.03763e-06
1.03756e-06
1.03761e-06
1.0385e-06
1.03856e-06
1.03856e-06
1.03776e-06
1.03727e-06
1.03586e-06
1.03586e-06
1.03586e-06
1.03742e-06
1.03776e-06
1.03853e-06
1.03776e-06
1.03724e-06
1.03586e-06
1.03586e-06
1.03586e-06
1.03586e-06
1.03586e-06
1.0374e-06
1.03776e-06
1.03853e-06
1.03852e-06
1.03727e-06
1.03586e-06
1.03586e-06
1.03586e-06
1.03586e-06
1.03586e-06
1.03586e-06
1.03586e-06
1.03742e-06
1.03784e-06
1.03858e-06
1.03763e-06
1.03586e-06
1.03586e-06
1.03586e-06
1.03586e-06
1.03586e-06
1.03586e-06
1.03586e-06
1.03586e-06
1.03586e-06
1.03787e-06
1.0387e-06
1.03756e-06
1.03586e-06
1.03586e-06
1.03586e-06
1.03586e-06
1.03586e-06
1.03586e-06
1.03586e-06
1.03586e-06
1.03586e-06
1.03785e-06
1.03871e-06
1.03761e-06
1.03586e-06
1.03586e-06
1.03586e-06
1.03586e-06
1.03586e-06
1.03586e-06
1.03586e-06
1.03586e-06
1.03586e-06
1.03786e-06
1.03871e-06
1.0385e-06
1.03742e-06
1.03586e-06
1.03586e-06
1.03586e-06
1.03586e-06
1.03586e-06
1.03586e-06
1.03586e-06
1.03762e-06
1.03788e-06
1.03871e-06
1.03856e-06
1.03776e-06
1.0374e-06
1.03586e-06
1.03586e-06
1.03586e-06
1.03586e-06
1.03586e-06
1.03759e-06
1.03779e-06
1.03794e-06
1.03853e-06
1.03776e-06
1.03742e-06
1.03586e-06
1.03586e-06
1.03586e-06
1.03762e-06
1.03779e-06
1.03791e-06
1.03869e-06
1.03853e-06
1.03784e-06
1.03787e-06
1.03785e-06
1.03786e-06
1.03788e-06
1.03794e-06
1.03869e-06
1.03858e-06
1.0387e-06
1.03871e-06
1.03871e-06
1.03871e-06
1.02853e-06
1.02763e-06
1.02757e-06
1.02761e-06
1.02851e-06
1.02856e-06
1.02856e-06
1.02776e-06
1.02728e-06
1.02587e-06
1.02587e-06
1.02587e-06
1.02743e-06
1.02777e-06
1.02854e-06
1.02776e-06
1.02725e-06
1.02587e-06
1.02587e-06
1.02587e-06
1.02587e-06
1.02587e-06
1.0274e-06
1.02776e-06
1.02854e-06
1.02853e-06
1.02728e-06
1.02587e-06
1.02587e-06
1.02587e-06
1.02587e-06
1.02587e-06
1.02587e-06
1.02587e-06
1.02743e-06
1.02785e-06
1.02858e-06
1.02763e-06
1.02587e-06
1.02587e-06
1.02587e-06
1.02587e-06
1.02587e-06
1.02587e-06
1.02587e-06
1.02587e-06
1.02587e-06
1.02788e-06
1.02871e-06
1.02757e-06
1.02587e-06
1.02587e-06
1.02587e-06
1.02587e-06
1.02587e-06
1.02587e-06
1.02587e-06
1.02587e-06
1.02587e-06
1.02786e-06
1.02871e-06
1.02761e-06
1.02587e-06
1.02587e-06
1.02587e-06
1.02587e-06
1.02587e-06
1.02587e-06
1.02587e-06
1.02587e-06
1.02587e-06
1.02787e-06
1.02871e-06
1.02851e-06
1.02743e-06
1.02587e-06
1.02587e-06
1.02587e-06
1.02587e-06
1.02587e-06
1.02587e-06
1.02587e-06
1.02763e-06
1.02788e-06
1.02871e-06
1.02856e-06
1.02777e-06
1.0274e-06
1.02587e-06
1.02587e-06
1.02587e-06
1.02587e-06
1.02587e-06
1.0276e-06
1.0278e-06
1.02795e-06
1.02854e-06
1.02776e-06
1.02743e-06
1.02587e-06
1.02587e-06
1.02587e-06
1.02763e-06
1.0278e-06
1.02792e-06
1.0287e-06
1.02854e-06
1.02785e-06
1.02788e-06
1.02786e-06
1.02787e-06
1.02788e-06
1.02795e-06
1.0287e-06
1.02858e-06
1.02871e-06
1.02871e-06
1.02871e-06
1.02871e-06
1.01854e-06
1.01764e-06
1.01757e-06
1.01762e-06
1.01851e-06
1.01857e-06
1.01857e-06
1.01777e-06
1.01728e-06
1.01587e-06
1.01587e-06
1.01587e-06
1.01743e-06
1.01777e-06
1.01854e-06
1.01777e-06
1.01725e-06
1.01587e-06
1.01587e-06
1.01587e-06
1.01587e-06
1.01587e-06
1.01741e-06
1.01777e-06
1.01855e-06
1.01854e-06
1.01729e-06
1.01587e-06
1.01587e-06
1.01587e-06
1.01587e-06
1.01587e-06
1.01587e-06
1.01587e-06
1.01743e-06
1.01785e-06
1.01859e-06
1.01764e-06
1.01587e-06
1.01587e-06
1.01587e-06
1.01587e-06
1.01587e-06
1.01587e-06
1.01587e-06
1.01587e-06
1.01587e-06
1.01788e-06
1.01872e-06
1.01757e-06
1.01587e-06
1.01587e-06
1.01587e-06
1.01587e-06
1.01587e-06
1.01587e-06
1.01587e-06
1.01587e-06
1.01587e-06
1.01786e-06
1.01872e-06
1.01762e-06
1.01587e-06
1.01587e-06
1.01587e-06
1.01587e-06
1.01587e-06
1.01587e-06
1.01587e-06
1.01587e-06
1.01587e-06
1.01787e-06
1.01872e-06
1.01851e-06
1.01743e-06
1.01587e-06
1.01587e-06
1.01587e-06
1.01587e-06
1.01587e-06
1.01587e-06
1.01587e-06
1.01764e-06
1.01789e-06
1.01872e-06
1.01857e-06
1.01777e-06
1.01741e-06
1.01587e-06
1.01587e-06
1.01587e-06
1.01587e-06
1.01587e-06
1.0176e-06
1.0178e-06
1.01795e-06
1.01854e-06
1.01777e-06
1.01743e-06
1.01587e-06
1.01587e-06
1.01587e-06
1.01764e-06
1.0178e-06
1.01793e-06
1.0187e-06
1.01855e-06
1.01785e-06
1.01788e-06
1.01786e-06
1.01787e-06
1.01789e-06
1.01795e-06
1.0187e-06
1.01859e-06
1.01872e-06
1.01872e-06
1.01872e-06
1.01872e-06
1.00854e-06
1.00765e-06
1.00758e-06
1.00763e-06
1.00852e-06
1.00857e-06
1.00857e-06
1.00777e-06
1.00729e-06
1.00588e-06
1.00588e-06
1.00588e-06
1.00744e-06
1.00778e-06
1.00855e-06
1.00777e-06
1.00726e-06
1.00588e-06
1.00588e-06
1.00588e-06
1.00588e-06
1.00588e-06
1.00741e-06
1.00777e-06
1.00855e-06
1.00854e-06
1.00729e-06
1.00588e-06
1.00588e-06
1.00588e-06
1.00588e-06
1.00588e-06
1.00588e-06
1.00588e-06
1.00744e-06
1.00786e-06
1.0086e-06
1.00765e-06
1.00588e-06
1.00588e-06
1.00588e-06
1.00588e-06
1.00588e-06
1.00588e-06
1.00588e-06
1.00588e-06
1.00588e-06
1.00789e-06
1.00872e-06
1.00758e-06
1.00588e-06
1.00588e-06
1.00588e-06
1.00588e-06
1.00588e-06
1.00588e-06
1.00588e-06
1.00588e-06
1.00588e-06
1.00787e-06
1.00872e-06
1.00763e-06
1.00588e-06
1.00588e-06
1.00588e-06
1.00588e-06
1.00588e-06
1.00588e-06
1.00588e-06
1.00588e-06
1.00588e-06
1.00788e-06
1.00872e-06
1.00852e-06
1.00744e-06
1.00588e-06
1.00588e-06
1.00588e-06
1.00588e-06
1.00588e-06
1.00588e-06
1.00588e-06
1.00764e-06
1.0079e-06
1.00872e-06
1.00857e-06
1.00778e-06
1.00741e-06
1.00588e-06
1.00588e-06
1.00588e-06
1.00588e-06
1.00588e-06
1.00761e-06
1.00781e-06
1.00796e-06
1.00855e-06
1.00777e-06
1.00744e-06
1.00588e-06
1.00588e-06
1.00588e-06
1.00764e-06
1.00781e-06
1.00793e-06
1.00871e-06
1.00855e-06
1.00786e-06
1.00789e-06
1.00787e-06
1.00788e-06
1.0079e-06
1.00796e-06
1.00871e-06
1.0086e-06
1.00872e-06
1.00872e-06
1.00872e-06
1.00872e-06
9.98547e-07
9.97651e-07
9.97582e-07
9.97631e-07
9.98525e-07
9.9858e-07
9.9858e-07
9.97778e-07
9.97296e-07
9.95882e-07
9.95883e-07
9.95882e-07
9.97443e-07
9.97783e-07
9.98553e-07
9.97778e-07
9.97262e-07
9.95883e-07
9.95884e-07
9.95883e-07
9.95884e-07
9.95883e-07
9.97419e-07
9.9778e-07
9.98557e-07
9.98546e-07
9.97296e-07
9.95883e-07
9.95883e-07
9.95883e-07
9.95883e-07
9.95883e-07
9.95883e-07
9.95883e-07
9.97443e-07
9.97864e-07
9.98601e-07
9.97651e-07
9.95882e-07
9.95884e-07
9.95883e-07
9.95884e-07
9.95883e-07
9.95884e-07
9.95883e-07
9.95884e-07
9.95882e-07
9.97892e-07
9.98726e-07
9.97581e-07
9.95883e-07
9.95883e-07
9.95883e-07
9.95883e-07
9.95883e-07
9.95883e-07
9.95883e-07
9.95883e-07
9.95883e-07
9.97875e-07
9.98729e-07
9.97631e-07
9.95882e-07
9.95884e-07
9.95883e-07
9.95884e-07
9.95883e-07
9.95884e-07
9.95883e-07
9.95884e-07
9.95882e-07
9.97882e-07
9.9873e-07
9.98525e-07
9.97443e-07
9.95883e-07
9.95883e-07
9.95883e-07
9.95883e-07
9.95883e-07
9.95883e-07
9.95883e-07
9.97646e-07
9.97901e-07
9.98728e-07
9.9858e-07
9.97783e-07
9.97419e-07
9.95883e-07
9.95884e-07
9.95883e-07
9.95884e-07
9.95883e-07
9.97612e-07
9.97815e-07
9.97962e-07
9.98553e-07
9.9778e-07
9.97443e-07
9.95882e-07
9.95883e-07
9.95882e-07
9.97646e-07
9.97815e-07
9.97937e-07
9.98714e-07
9.98557e-07
9.97864e-07
9.97892e-07
9.97875e-07
9.97882e-07
9.97901e-07
9.97962e-07
9.98714e-07
9.98601e-07
9.98726e-07
9.98729e-07
9.9873e-07
9.98728e-07
9.88552e-07
9.87656e-07
9.87587e-07
9.87636e-07
9.8853e-07
9.88585e-07
9.88585e-07
9.87784e-07
9.87301e-07
9.85888e-07
9.85888e-07
9.85888e-07
9.87448e-07
9.87788e-07
9.88558e-07
9.87784e-07
9.87267e-07
9.85888e-07
9.85889e-07
9.85888e-07
9.85889e-07
9.85888e-07
9.87425e-07
9.87786e-07
9.88562e-07
9.88552e-07
9.87301e-07
9.85888e-07
9.85889e-07
9.85888e-07
9.85889e-07
9.85888e-07
9.85889e-07
9.85888e-07
9.87449e-07
9.8787e-07
9.88607e-07
9.87656e-07
9.85888e-07
9.85889e-07
9.85888e-07
9.85889e-07
9.85888e-07
9.85889e-07
9.85888e-07
9.85889e-07
9.85888e-07
9.87898e-07
9.88732e-07
9.87587e-07
9.85888e-07
9.85888e-07
9.85889e-07
9.85888e-07
9.85889e-07
9.85888e-07
9.85889e-07
9.85888e-07
9.85888e-07
9.8788e-07
9.88735e-07