/*--------------------------------*- C++ -*----------------------------------*\
| =========                 |                                                 |
| \\      /  F ield         | OpenFOAM: The Open Source CFD Toolbox           |
|  \\    /   O peration     | Version:  v2012                                 |
|   \\  /    A nd           | Website:  www.openfoam.com                      |
|    \\/     M anipulation  |                                                 |
\*---------------------------------------------------------------------------*/
FoamFile
{
    version     2.0;
    format      ascii;
    class       volScalarField;
    location    "77";
    object      p;
}
// * * * * * * * * * * * * * * * * * * * * * * * * * * * * * * * * * * * * * //

dimensions      [0 2 -2 0 0 0 0];


internalField   nonuniform List<scalar> 
292667
(
1.02545e-06
1.01661e-06
1.01596e-06
1.01602e-06
1.01688e-06
1.02629e-06
1.01681e-06
1.01461e-06
1.01331e-06
1.01277e-06
1.01284e-06
1.01353e-06
1.01503e-06
1.01742e-06
1.01681e-06
1.01397e-06
1.01218e-06
1.01118e-06
1.01076e-06
1.01081e-06
1.01136e-06
1.01251e-06
1.01453e-06
1.01757e-06
1.02545e-06
1.01461e-06
1.01218e-06
1.01071e-06
1.0099e-06
1.00955e-06
1.00959e-06
1.01005e-06
1.011e-06
1.01265e-06
1.01537e-06
1.02487e-06
1.01661e-06
1.01331e-06
1.01118e-06
1.0099e-06
1.00917e-06
1.00885e-06
1.0089e-06
1.0093e-06
1.01015e-06
1.01161e-06
1.01401e-06
1.01987e-06
1.01596e-06
1.01277e-06
1.01076e-06
1.00955e-06
1.00885e-06
1.00855e-06
1.00859e-06
1.00898e-06
1.00979e-06
1.01117e-06
1.01345e-06
1.01838e-06
1.01602e-06
1.01284e-06
1.01081e-06
1.00959e-06
1.0089e-06
1.00859e-06
1.00864e-06
1.00903e-06
1.00984e-06
1.01123e-06
1.01353e-06
1.01868e-06
1.01688e-06
1.01353e-06
1.01136e-06
1.01005e-06
1.0093e-06
1.00898e-06
1.00903e-06
1.00945e-06
1.01031e-06
1.01181e-06
1.01427e-06
1.02015e-06
1.02629e-06
1.01503e-06
1.01251e-06
1.011e-06
1.01015e-06
1.00979e-06
1.00984e-06
1.01031e-06
1.0113e-06
1.01303e-06
1.01584e-06
1.02471e-06
1.01742e-06
1.01453e-06
1.01265e-06
1.01161e-06
1.01117e-06
1.01123e-06
1.01181e-06
1.01303e-06
1.01516e-06
1.02082e-06
1.01757e-06
1.01537e-06
1.01401e-06
1.01345e-06
1.01353e-06
1.01427e-06
1.01584e-06
1.02082e-06
1.02487e-06
1.01987e-06
1.01838e-06
1.01868e-06
1.02015e-06
1.02471e-06
1.00207e-06
1.00146e-06
1.00143e-06
1.00149e-06
1.00211e-06
1.00196e-06
1.00209e-06
1.00163e-06
1.00131e-06
1.00022e-06
1.00021e-06
1.00022e-06
1.00147e-06
1.00169e-06
1.00215e-06
1.00163e-06
1.00129e-06
1.00026e-06
1.00022e-06
1.00025e-06
1.00022e-06
1.00026e-06
1.00146e-06
1.00168e-06
1.00214e-06
1.00207e-06
1.00131e-06
1.00026e-06
1.0002e-06
1.00022e-06
1.0002e-06
1.00022e-06
1.0002e-06
1.00026e-06
1.00146e-06
1.00172e-06
1.00215e-06
1.00146e-06
1.00022e-06
1.00022e-06
1.00022e-06
1.00018e-06
1.00019e-06
1.00018e-06
1.00022e-06
1.00022e-06
1.00022e-06
1.00188e-06
1.00233e-06
1.00143e-06
1.00021e-06
1.00025e-06
1.0002e-06
1.00019e-06
1.00018e-06
1.00019e-06
1.0002e-06
1.00026e-06
1.00021e-06
1.0019e-06
1.00228e-06
1.00149e-06
1.00022e-06
1.00022e-06
1.00022e-06
1.00018e-06
1.00019e-06
1.00018e-06
1.00022e-06
1.00022e-06
1.00022e-06
1.00189e-06
1.00229e-06
1.00211e-06
1.00147e-06
1.00026e-06
1.0002e-06
1.00022e-06
1.0002e-06
1.00022e-06
1.0002e-06
1.00026e-06
1.00166e-06
1.00179e-06
1.00229e-06
1.00196e-06
1.00169e-06
1.00146e-06
1.00026e-06
1.00022e-06
1.00026e-06
1.00022e-06
1.00026e-06
1.00163e-06
1.00175e-06
1.00174e-06
1.00215e-06
1.00168e-06
1.00146e-06
1.00022e-06
1.00021e-06
1.00022e-06
1.00166e-06
1.00175e-06
1.00178e-06
1.00224e-06
1.00214e-06
1.00172e-06
1.00188e-06
1.0019e-06
1.00189e-06
1.00179e-06
1.00174e-06
1.00224e-06
1.00215e-06
1.00233e-06
1.00228e-06
1.00229e-06
1.00229e-06
9.93543e-07
9.92879e-07
9.92825e-07
9.9287e-07
9.93565e-07
9.93573e-07
9.93552e-07
9.92977e-07
9.926e-07
9.91561e-07
9.91559e-07
9.91561e-07
9.92758e-07
9.93015e-07
9.93571e-07
9.92977e-07
9.92577e-07
9.91599e-07
9.91604e-07
9.91636e-07
9.91605e-07
9.91599e-07
9.92755e-07
9.93015e-07
9.93572e-07
9.93543e-07
9.926e-07
9.91599e-07
9.91618e-07
9.91659e-07
9.91655e-07
9.91659e-07
9.91618e-07
9.91599e-07
9.92768e-07
9.93081e-07
9.93586e-07
9.92879e-07
9.91561e-07
9.91605e-07
9.91659e-07
9.91665e-07
9.91685e-07
9.91665e-07
9.91659e-07
9.91605e-07
9.91561e-07
9.93158e-07
9.93742e-07
9.92825e-07
9.91559e-07
9.91636e-07
9.91655e-07
9.91685e-07
9.91686e-07
9.91685e-07
9.91655e-07
9.91636e-07
9.91559e-07
9.93164e-07
9.93766e-07
9.9287e-07
9.91561e-07
9.91605e-07
9.91659e-07
9.91665e-07
9.91685e-07
9.91665e-07
9.91659e-07
9.91605e-07
9.91561e-07
9.93161e-07
9.93766e-07
9.93565e-07
9.92758e-07
9.91599e-07
9.91618e-07
9.91659e-07
9.91655e-07
9.91659e-07
9.91618e-07
9.91599e-07
9.92983e-07
9.93135e-07
9.93729e-07
9.93573e-07
9.93015e-07
9.92755e-07
9.91599e-07
9.91605e-07
9.91636e-07
9.91605e-07
9.91599e-07
9.92962e-07
9.93076e-07
9.93156e-07
9.93571e-07
9.93015e-07
9.92768e-07
9.91561e-07
9.91559e-07
9.91561e-07
9.92983e-07
9.93076e-07
9.93139e-07
9.93704e-07
9.93572e-07
9.93081e-07
9.93158e-07
9.93164e-07
9.93161e-07
9.93135e-07
9.93156e-07
9.93704e-07
9.93586e-07
9.93742e-07
9.93766e-07
9.93766e-07
9.93729e-07
9.85044e-07
9.84371e-07
9.84312e-07
9.84359e-07
9.85065e-07
9.85076e-07
9.85053e-07
9.84465e-07
9.84069e-07
9.83013e-07
9.83014e-07
9.83013e-07
9.84221e-07
9.84491e-07
9.85072e-07
9.84465e-07
9.84038e-07
9.83033e-07
9.83048e-07
9.83062e-07
9.83048e-07
9.83033e-07
9.84207e-07
9.8449e-07
9.85074e-07
9.85044e-07
9.84069e-07
9.83033e-07
9.83057e-07
9.83085e-07
9.83086e-07
9.83085e-07
9.83057e-07
9.83033e-07
9.84227e-07
9.8457e-07
9.85088e-07
9.8437e-07
9.83013e-07
9.83048e-07
9.83086e-07
9.831e-07
9.83114e-07
9.831e-07
9.83086e-07
9.83048e-07
9.83013e-07
9.84638e-07
9.85244e-07
9.84312e-07
9.83014e-07
9.83062e-07
9.83086e-07
9.83114e-07
9.83116e-07
9.83114e-07
9.83086e-07
9.83062e-07
9.83014e-07
9.84637e-07
9.85265e-07
9.84359e-07
9.83013e-07
9.83048e-07
9.83085e-07
9.831e-07
9.83114e-07
9.831e-07
9.83085e-07
9.83048e-07
9.83013e-07
9.84636e-07
9.85265e-07
9.85065e-07
9.84221e-07
9.83033e-07
9.83057e-07
9.83086e-07
9.83086e-07
9.83086e-07
9.83057e-07
9.83033e-07
9.84443e-07
9.84622e-07
9.8523e-07
9.85076e-07
9.84491e-07
9.84207e-07
9.83033e-07
9.83048e-07
9.83062e-07
9.83048e-07
9.83033e-07
9.84418e-07
9.84549e-07
9.84655e-07
9.85072e-07
9.8449e-07
9.84227e-07
9.83013e-07
9.83014e-07
9.83013e-07
9.84443e-07
9.84549e-07
9.84632e-07
9.85208e-07
9.85074e-07
9.8457e-07
9.84638e-07
9.84636e-07
9.84636e-07
9.84622e-07
9.84654e-07
9.85208e-07
9.85088e-07
9.85243e-07
9.85265e-07
9.85265e-07
9.8523e-07
9.76545e-07
9.75868e-07
9.75808e-07
9.75855e-07
9.76565e-07
9.76578e-07
9.76555e-07
9.75961e-07
9.75559e-07
9.74493e-07
9.74495e-07
9.74493e-07
9.75709e-07
9.75985e-07
9.76573e-07
9.75961e-07
9.75524e-07
9.74504e-07
9.74515e-07
9.74521e-07
9.74515e-07
9.74504e-07
9.7569e-07
9.75983e-07
9.76576e-07
9.76545e-07
9.75558e-07
9.74504e-07
9.7452e-07
9.74537e-07
9.74538e-07
9.74537e-07
9.7452e-07
9.74504e-07
9.75713e-07
9.76067e-07
9.76589e-07
9.75868e-07
9.74493e-07
9.74515e-07
9.74537e-07
9.74549e-07
9.74557e-07
9.74549e-07
9.74537e-07
9.74515e-07
9.74493e-07
9.76133e-07
9.76745e-07
9.75808e-07
9.74495e-07
9.74521e-07
9.74538e-07
9.74557e-07
9.7456e-07
9.74557e-07
9.74538e-07
9.74521e-07
9.74495e-07
9.76129e-07
9.76765e-07
9.75855e-07
9.74493e-07
9.74515e-07
9.74537e-07
9.74549e-07
9.74557e-07
9.74549e-07
9.74537e-07
9.74515e-07
9.74493e-07
9.76129e-07
9.76765e-07
9.76565e-07
9.75709e-07
9.74504e-07
9.7452e-07
9.74537e-07
9.74539e-07
9.74537e-07
9.7452e-07
9.74504e-07
9.75931e-07
9.76119e-07
9.76731e-07
9.76578e-07
9.75985e-07
9.7569e-07
9.74504e-07
9.74515e-07
9.74521e-07
9.74515e-07
9.74504e-07
9.75901e-07
9.76042e-07
9.76155e-07
9.76573e-07
9.75983e-07
9.75713e-07
9.74493e-07
9.74495e-07
9.74493e-07
9.75931e-07
9.76042e-07
9.76131e-07
9.7671e-07
9.76576e-07
9.76067e-07
9.76133e-07
9.76129e-07
9.7613e-07
9.76119e-07
9.76155e-07
9.7671e-07
9.76589e-07
9.76745e-07
9.76765e-07
9.76765e-07
9.7673e-07
9.68044e-07
9.67365e-07
9.67305e-07
9.67353e-07
9.68064e-07
9.68077e-07
9.68054e-07
9.67459e-07
9.67053e-07
9.65984e-07
9.65985e-07
9.65984e-07
9.67204e-07
9.67482e-07
9.68073e-07
9.67459e-07
9.67016e-07
9.65989e-07
9.65996e-07
9.65999e-07
9.65996e-07
9.65989e-07
9.67182e-07
9.67479e-07
9.68076e-07
9.68044e-07
9.67053e-07
9.65989e-07
9.65998e-07
9.66008e-07
9.66009e-07
9.66008e-07
9.65998e-07
9.65989e-07
9.67207e-07
9.67565e-07
9.68088e-07
9.67365e-07
9.65984e-07
9.65996e-07
9.66008e-07
9.66016e-07
9.66021e-07
9.66016e-07
9.66008e-07
9.65996e-07
9.65983e-07
9.6763e-07
9.68243e-07
9.67305e-07
9.65985e-07
9.65999e-07
9.66009e-07
9.66021e-07
9.66023e-07
9.66021e-07
9.66009e-07
9.65999e-07
9.65985e-07
9.67625e-07
9.68264e-07
9.67353e-07
9.65984e-07
9.65996e-07
9.66008e-07
9.66016e-07
9.66021e-07
9.66016e-07
9.66008e-07
9.65996e-07
9.65983e-07
9.67625e-07
9.68264e-07
9.68064e-07
9.67204e-07
9.65989e-07
9.65998e-07
9.66008e-07
9.66009e-07
9.66008e-07
9.65998e-07
9.65989e-07
9.67424e-07
9.67617e-07
9.6823e-07
9.68077e-07
9.67482e-07
9.67182e-07
9.65989e-07
9.65996e-07
9.65999e-07
9.65996e-07
9.65989e-07
9.67393e-07
9.67538e-07
9.67654e-07
9.68073e-07
9.67479e-07
9.67207e-07
9.65984e-07
9.65985e-07
9.65984e-07
9.67424e-07
9.67538e-07
9.6763e-07
9.68209e-07
9.68076e-07
9.67565e-07
9.6763e-07
9.67625e-07
9.67625e-07
9.67617e-07
9.67654e-07
9.68209e-07
9.68088e-07
9.68243e-07
9.68264e-07
9.68264e-07
9.6823e-07
9.59541e-07
9.58862e-07
9.58802e-07
9.5885e-07
9.59561e-07
9.59575e-07
9.59553e-07
9.58956e-07
9.58549e-07
9.57477e-07
9.57478e-07
9.57477e-07
9.587e-07
9.58979e-07
9.59571e-07
9.58956e-07
9.58512e-07
9.5748e-07
9.57485e-07
9.57486e-07
9.57485e-07
9.5748e-07
9.58678e-07
9.58976e-07
9.59574e-07
9.59541e-07
9.58549e-07
9.5748e-07
9.57486e-07
9.57491e-07
9.57492e-07
9.57491e-07
9.57486e-07
9.5748e-07
9.58703e-07
9.59063e-07
9.59586e-07
9.58862e-07
9.57477e-07
9.57485e-07
9.57491e-07
9.57496e-07
9.57498e-07
9.57496e-07
9.57491e-07
9.57485e-07
9.57477e-07
9.59127e-07
9.59741e-07
9.58802e-07
9.57478e-07
9.57486e-07
9.57492e-07
9.57498e-07
9.575e-07
9.57498e-07
9.57492e-07
9.57486e-07
9.57478e-07
9.59121e-07
9.59761e-07
9.5885e-07
9.57477e-07
9.57485e-07
9.57491e-07
9.57496e-07
9.57498e-07
9.57496e-07
9.57491e-07
9.57485e-07
9.57477e-07
9.59122e-07
9.59761e-07
9.59561e-07
9.587e-07
9.5748e-07
9.57486e-07
9.57491e-07
9.57492e-07
9.57491e-07
9.57486e-07
9.5748e-07
9.5892e-07
9.59114e-07
9.59727e-07
9.59575e-07
9.58979e-07
9.58678e-07
9.5748e-07
9.57485e-07
9.57486e-07
9.57485e-07
9.5748e-07
9.58888e-07
9.59035e-07
9.59152e-07
9.59571e-07
9.58976e-07
9.58703e-07
9.57477e-07
9.57478e-07
9.57477e-07
9.5892e-07
9.59035e-07
9.59128e-07
9.59708e-07
9.59574e-07
9.59063e-07
9.59127e-07
9.59121e-07
9.59122e-07
9.59114e-07
9.59152e-07
9.59708e-07
9.59586e-07
9.59741e-07
9.59761e-07
9.59761e-07
9.59727e-07
9.51039e-07
9.50359e-07
9.50299e-07
9.50346e-07
9.51059e-07
9.51072e-07
9.5105e-07
9.50453e-07
9.50045e-07
9.48972e-07
9.48974e-07
9.48972e-07
9.50196e-07
9.50476e-07
9.51068e-07
9.50453e-07
9.50008e-07
9.48974e-07
9.48977e-07
9.48977e-07
9.48977e-07
9.48974e-07
9.50174e-07
9.50473e-07
9.51071e-07
9.51039e-07
9.50045e-07
9.48974e-07
9.48978e-07
9.4898e-07
9.48981e-07
9.4898e-07
9.48978e-07
9.48974e-07
9.50199e-07
9.5056e-07
9.51083e-07
9.50359e-07
9.48972e-07
9.48977e-07
9.4898e-07
9.48984e-07
9.48984e-07
9.48984e-07
9.4898e-07
9.48977e-07
9.48973e-07
9.50624e-07
9.51238e-07
9.50299e-07
9.48974e-07
9.48977e-07
9.48981e-07
9.48984e-07
9.48985e-07
9.48984e-07
9.48981e-07
9.48977e-07
9.48974e-07
9.50618e-07
9.51259e-07
9.50346e-07
9.48972e-07
9.48977e-07
9.4898e-07
9.48984e-07
9.48985e-07
9.48984e-07
9.4898e-07
9.48977e-07
9.48973e-07
9.50619e-07
9.51259e-07
9.51059e-07
9.50196e-07
9.48974e-07
9.48978e-07
9.4898e-07
9.48981e-07
9.4898e-07
9.48978e-07
9.48974e-07
9.50417e-07
9.50612e-07
9.51225e-07
9.51072e-07
9.50476e-07
9.50174e-07
9.48974e-07
9.48977e-07
9.48978e-07
9.48977e-07
9.48974e-07
9.50384e-07
9.50532e-07
9.5065e-07
9.51068e-07
9.50473e-07
9.50199e-07
9.48973e-07
9.48974e-07
9.48973e-07
9.50417e-07
9.50532e-07
9.50625e-07
9.51205e-07
9.51071e-07
9.5056e-07
9.50624e-07
9.50618e-07
9.50619e-07
9.50612e-07
9.50649e-07
9.51205e-07
9.51083e-07
9.51238e-07
9.51259e-07
9.51259e-07
9.51225e-07
9.42536e-07
9.41856e-07
9.41796e-07
9.41843e-07
9.42556e-07
9.42569e-07
9.42547e-07
9.4195e-07
9.41542e-07
9.40469e-07
9.40469e-07
9.40469e-07
9.41693e-07
9.41973e-07
9.42565e-07
9.4195e-07
9.41504e-07
9.4047e-07
9.40472e-07
9.40472e-07
9.40472e-07
9.4047e-07
9.4167e-07
9.4197e-07
9.42568e-07
9.42536e-07
9.41542e-07
9.4047e-07
9.40472e-07
9.40473e-07
9.40474e-07
9.40473e-07
9.40472e-07
9.4047e-07
9.41696e-07
9.42057e-07
9.4258e-07
9.41856e-07
9.40469e-07
9.40472e-07
9.40473e-07
9.40475e-07
9.40476e-07
9.40475e-07
9.40473e-07
9.40472e-07
9.40469e-07
9.42121e-07
9.42736e-07
9.41796e-07
9.40469e-07
9.40472e-07
9.40474e-07
9.40476e-07
9.40476e-07
9.40476e-07
9.40474e-07
9.40472e-07
9.40469e-07
9.42115e-07
9.42756e-07
9.41843e-07
9.40469e-07
9.40472e-07
9.40473e-07
9.40475e-07
9.40476e-07
9.40475e-07
9.40473e-07
9.40472e-07
9.40469e-07
9.42116e-07
9.42756e-07
9.42556e-07
9.41693e-07
9.4047e-07
9.40472e-07
9.40473e-07
9.40474e-07
9.40473e-07
9.40472e-07
9.4047e-07
9.41913e-07
9.42109e-07
9.42722e-07
9.42569e-07
9.41973e-07
9.4167e-07
9.4047e-07
9.40472e-07
9.40472e-07
9.40472e-07
9.4047e-07
9.41881e-07
9.42028e-07
9.42147e-07
9.42565e-07
9.4197e-07
9.41696e-07
9.40469e-07
9.40469e-07
9.40469e-07
9.41913e-07
9.42028e-07
9.42122e-07
9.42703e-07
9.42568e-07
9.42057e-07
9.42121e-07
9.42115e-07
9.42116e-07
9.42108e-07
9.42147e-07
9.42702e-07
9.4258e-07
9.42736e-07
9.42756e-07
9.42756e-07
9.42722e-07
9.34033e-07
9.33352e-07
9.33292e-07
9.3334e-07
9.34053e-07
9.34066e-07
9.34044e-07
9.33447e-07
9.33039e-07
9.31965e-07
9.31966e-07
9.31965e-07
9.3319e-07
9.33469e-07
9.34062e-07
9.33447e-07
9.33001e-07
9.31966e-07
9.31968e-07
9.31967e-07
9.31968e-07
9.31966e-07
9.33167e-07
9.33467e-07
9.34065e-07
9.34033e-07
9.33039e-07
9.31966e-07
9.31968e-07
9.31968e-07
9.31968e-07
9.31968e-07
9.31968e-07
9.31966e-07
9.33192e-07
9.33554e-07
9.34077e-07
9.33352e-07
9.31965e-07
9.31968e-07
9.31968e-07
9.31969e-07
9.31969e-07
9.31969e-07
9.31968e-07
9.31968e-07
9.31965e-07
9.33618e-07
9.34232e-07
9.33292e-07
9.31966e-07
9.31967e-07
9.31968e-07
9.31969e-07
9.3197e-07
9.31969e-07
9.31968e-07
9.31967e-07
9.31966e-07
9.33611e-07
9.34253e-07
9.3334e-07
9.31965e-07
9.31968e-07
9.31968e-07
9.31969e-07
9.31969e-07
9.31969e-07
9.31968e-07
9.31968e-07
9.31965e-07
9.33612e-07
9.34252e-07
9.34053e-07
9.3319e-07
9.31966e-07
9.31968e-07
9.31968e-07
9.31968e-07
9.31968e-07
9.31968e-07
9.31966e-07
9.3341e-07
9.33605e-07
9.34219e-07
9.34066e-07
9.33469e-07
9.33167e-07
9.31966e-07
9.31968e-07
9.31967e-07
9.31968e-07
9.31966e-07
9.33377e-07
9.33525e-07
9.33644e-07
9.34062e-07
9.33467e-07
9.33192e-07
9.31965e-07
9.31966e-07
9.31965e-07
9.3341e-07
9.33525e-07
9.33619e-07
9.34199e-07
9.34065e-07
9.33554e-07
9.33618e-07
9.33611e-07
9.33612e-07
9.33605e-07
9.33644e-07
9.34199e-07
9.34077e-07
9.34232e-07
9.34253e-07
9.34253e-07
9.34219e-07
9.2553e-07
9.24849e-07
9.24789e-07
9.24837e-07
9.2555e-07
9.25563e-07
9.25541e-07
9.24944e-07
9.24535e-07
9.23462e-07
9.23463e-07
9.23462e-07
9.24687e-07
9.24966e-07
9.25559e-07
9.24944e-07
9.24498e-07
9.23462e-07
9.23464e-07
9.23463e-07
9.23464e-07
9.23462e-07
9.24664e-07
9.24964e-07
9.25562e-07
9.2553e-07
9.24536e-07
9.23462e-07
9.23464e-07
9.23463e-07
9.23464e-07
9.23463e-07
9.23464e-07
9.23462e-07
9.24689e-07
9.25051e-07
9.25574e-07
9.24849e-07
9.23462e-07
9.23464e-07
9.23463e-07
9.23465e-07
9.23464e-07
9.23465e-07
9.23463e-07
9.23464e-07
9.23462e-07
9.25114e-07
9.25729e-07
9.24789e-07
9.23463e-07
9.23463e-07
9.23464e-07
9.23464e-07
9.23465e-07
9.23464e-07
9.23464e-07
9.23463e-07
9.23462e-07
9.25108e-07
9.25749e-07
9.24837e-07
9.23462e-07
9.23464e-07
9.23463e-07
9.23465e-07
9.23464e-07
9.23465e-07
9.23463e-07
9.23464e-07
9.23462e-07
9.25109e-07
9.25749e-07
9.2555e-07
9.24687e-07
9.23462e-07
9.23464e-07
9.23463e-07
9.23464e-07
9.23463e-07
9.23463e-07
9.23462e-07
9.24907e-07
9.25102e-07
9.25715e-07
9.25563e-07
9.24966e-07
9.24664e-07
9.23462e-07
9.23464e-07
9.23463e-07
9.23464e-07
9.23462e-07
9.24874e-07
9.25022e-07
9.25141e-07
9.25559e-07
9.24964e-07
9.24689e-07
9.23462e-07
9.23462e-07
9.23462e-07
9.24907e-07
9.25022e-07
9.25116e-07
9.25696e-07
9.25562e-07
9.25051e-07
9.25114e-07
9.25108e-07
9.25109e-07
9.25102e-07
9.2514e-07
9.25696e-07
9.25574e-07
9.25729e-07
9.25749e-07
9.25749e-07
9.25716e-07
9.17027e-07
9.16346e-07
9.16286e-07
9.16334e-07
9.17046e-07
9.1706e-07
9.17038e-07
9.16441e-07
9.16032e-07
9.14958e-07
9.14959e-07
9.14958e-07
9.16183e-07
9.16463e-07
9.17056e-07
9.16441e-07
9.15995e-07
9.14959e-07
9.14961e-07
9.1496e-07
9.14961e-07
9.14959e-07
9.16161e-07
9.16461e-07
9.17059e-07
9.17027e-07
9.16032e-07
9.14959e-07
9.1496e-07
9.14959e-07
9.1496e-07
9.14959e-07
9.1496e-07
9.14959e-07
9.16186e-07
9.16548e-07
9.17071e-07
9.16346e-07
9.14958e-07
9.14961e-07
9.14959e-07
9.14961e-07
9.1496e-07
9.14961e-07
9.14959e-07
9.14961e-07
9.14958e-07
9.16611e-07
9.17226e-07
9.16286e-07
9.14959e-07
9.1496e-07
9.1496e-07
9.1496e-07
9.14961e-07
9.1496e-07
9.1496e-07
9.1496e-07
9.14959e-07
9.16605e-07
9.17246e-07
9.16334e-07
9.14958e-07
9.14961e-07
9.14959e-07
9.14961e-07
9.1496e-07
9.14961e-07
9.14959e-07
9.14961e-07
9.14958e-07
9.16606e-07
9.17246e-07
9.17046e-07
9.16183e-07
9.14959e-07
9.1496e-07
9.14959e-07
9.1496e-07
9.14959e-07
9.1496e-07
9.14959e-07
9.16404e-07
9.16599e-07
9.17212e-07
9.1706e-07
9.16463e-07
9.16161e-07
9.14959e-07
9.14961e-07
9.1496e-07
9.14961e-07
9.14959e-07
9.16371e-07
9.16519e-07
9.16637e-07
9.17056e-07
9.16461e-07
9.16186e-07
9.14958e-07
9.14959e-07
9.14958e-07
9.16404e-07
9.16519e-07
9.16613e-07
9.17193e-07
9.17059e-07
9.16548e-07
9.16611e-07
9.16605e-07
9.16606e-07
9.16599e-07
9.16637e-07
9.17193e-07
9.17071e-07
9.17226e-07
9.17246e-07
9.17246e-07
9.17212e-07
9.08524e-07
9.07843e-07
9.07783e-07
9.07831e-07
9.08543e-07
9.08557e-07
9.08535e-07
9.07937e-07
9.07529e-07
9.06455e-07
9.06456e-07
9.06455e-07
9.0768e-07
9.0796e-07
9.08553e-07
9.07938e-07
9.07491e-07
9.06456e-07
9.06458e-07
9.06456e-07
9.06458e-07
9.06456e-07
9.07657e-07
9.07957e-07
9.08556e-07
9.08524e-07
9.07529e-07
9.06456e-07
9.06457e-07
9.06456e-07
9.06457e-07
9.06456e-07
9.06457e-07
9.06456e-07
9.07683e-07
9.08044e-07
9.08568e-07
9.07843e-07
9.06455e-07
9.06458e-07
9.06456e-07
9.06458e-07
9.06457e-07
9.06458e-07
9.06456e-07
9.06457e-07
9.06455e-07
9.08108e-07
9.08723e-07
9.07783e-07
9.06456e-07
9.06456e-07
9.06457e-07
9.06456e-07
9.06457e-07
9.06456e-07
9.06457e-07
9.06456e-07
9.06456e-07
9.08102e-07
9.08743e-07
9.07831e-07
9.06455e-07
9.06458e-07
9.06456e-07
9.06458e-07
9.06456e-07
9.06458e-07
9.06456e-07
9.06457e-07
9.06455e-07
9.08103e-07
9.08743e-07
9.08543e-07
9.0768e-07
9.06456e-07
9.06457e-07
9.06456e-07
9.06457e-07
9.06456e-07
9.06457e-07
9.06456e-07
9.079e-07
9.08096e-07
9.08709e-07
9.08557e-07
9.0796e-07
9.07657e-07
9.06456e-07
9.06458e-07
9.06456e-07
9.06458e-07
9.06456e-07
9.07867e-07
9.08016e-07
9.08134e-07
9.08553e-07
9.07957e-07
9.07683e-07
9.06455e-07
9.06456e-07
9.06455e-07
9.079e-07
9.08016e-07
9.0811e-07
9.0869e-07
9.08556e-07
9.08044e-07
9.08108e-07
9.08102e-07
9.08103e-07
9.08096e-07
9.08134e-07
9.0869e-07
9.08568e-07
9.08723e-07
9.08743e-07
9.08743e-07
9.08709e-07
9.0002e-07
8.9934e-07
8.9928e-07
8.99328e-07
9.0004e-07
9.00054e-07
9.00032e-07
8.99434e-07
8.99026e-07
8.97952e-07
8.97953e-07
8.97952e-07
8.99177e-07
8.99457e-07
9.0005e-07
8.99434e-07
8.98988e-07
8.97952e-07
8.97954e-07
8.97953e-07
8.97954e-07
8.97952e-07
8.99154e-07
8.99454e-07
9.00053e-07
9.0002e-07
8.99026e-07
8.97952e-07
8.97953e-07
8.97953e-07
8.97953e-07
8.97953e-07
8.97953e-07
8.97952e-07
8.9918e-07
8.99541e-07
9.00065e-07
8.9934e-07
8.97952e-07
8.97954e-07
8.97953e-07
8.97954e-07
8.97953e-07
8.97954e-07
8.97953e-07
8.97954e-07
8.97952e-07
8.99605e-07
9.0022e-07
8.9928e-07
8.97953e-07
8.97953e-07
8.97953e-07
8.97953e-07
8.97953e-07
8.97953e-07
8.97953e-07
8.97953e-07
8.97953e-07
8.99599e-07
9.0024e-07
8.99328e-07
8.97952e-07
8.97954e-07
8.97953e-07
8.97954e-07
8.97953e-07
8.97954e-07
8.97953e-07
8.97954e-07
8.97952e-07
8.996e-07
9.0024e-07
9.0004e-07
8.99177e-07
8.97952e-07
8.97953e-07
8.97953e-07
8.97953e-07
8.97953e-07
8.97953e-07
8.97952e-07
8.99397e-07
8.99593e-07
9.00206e-07
9.00054e-07
8.99457e-07
8.99154e-07
8.97952e-07
8.97954e-07
8.97953e-07
8.97954e-07
8.97952e-07
8.99364e-07
8.99513e-07
8.99631e-07
9.0005e-07
8.99454e-07
8.9918e-07
8.97952e-07
8.97953e-07
8.97952e-07
8.99397e-07
8.99513e-07
8.99607e-07
9.00187e-07
9.00053e-07
8.99541e-07
8.99605e-07
8.99599e-07
8.996e-07
8.99593e-07
8.99631e-07
9.00187e-07
9.00065e-07
9.0022e-07
9.0024e-07
9.0024e-07
9.00206e-07
8.91517e-07
8.90837e-07
8.90777e-07
8.90824e-07
8.91537e-07
8.91551e-07
8.91528e-07
8.90931e-07
8.90523e-07
8.89449e-07
8.8945e-07
8.89449e-07
8.90674e-07
8.90954e-07
8.91547e-07
8.90931e-07
8.90485e-07
8.89449e-07
8.89451e-07
8.8945e-07
8.89451e-07
8.89449e-07
8.90651e-07
8.90951e-07
8.9155e-07
8.91517e-07
8.90523e-07
8.89449e-07
8.8945e-07
8.89449e-07
8.8945e-07
8.89449e-07
8.8945e-07
8.89449e-07
8.90677e-07
8.91038e-07
8.91561e-07
8.90837e-07
8.89449e-07
8.89451e-07
8.89449e-07
8.89451e-07
8.8945e-07
8.89451e-07
8.89449e-07
8.89451e-07
8.89449e-07
8.91102e-07
8.91717e-07
8.90777e-07
8.8945e-07
8.8945e-07
8.8945e-07
8.8945e-07
8.8945e-07
8.8945e-07
8.8945e-07
8.8945e-07
8.8945e-07
8.91095e-07
8.91737e-07
8.90824e-07
8.89449e-07
8.89451e-07
8.89449e-07
8.89451e-07
8.8945e-07
8.89451e-07
8.89449e-07
8.89451e-07
8.89449e-07
8.91097e-07
8.91737e-07
8.91537e-07
8.90674e-07
8.89449e-07
8.8945e-07
8.89449e-07
8.8945e-07
8.89449e-07
8.8945e-07
8.89449e-07
8.90894e-07
8.9109e-07
8.91703e-07
8.91551e-07
8.90954e-07
8.90651e-07
8.89449e-07
8.89451e-07
8.8945e-07
8.89451e-07
8.89449e-07
8.90861e-07
8.9101e-07
8.91128e-07
8.91547e-07
8.90951e-07
8.90677e-07
8.89449e-07
8.8945e-07
8.89449e-07
8.90894e-07
8.9101e-07
8.91104e-07
8.91684e-07
8.9155e-07
8.91038e-07
8.91102e-07
8.91095e-07
8.91097e-07
8.9109e-07
8.91128e-07
8.91684e-07
8.91561e-07
8.91717e-07
8.91737e-07
8.91737e-07
8.91703e-07
8.83014e-07
8.82334e-07
8.82274e-07
8.82321e-07
8.83034e-07
8.83048e-07
8.83025e-07
8.82428e-07
8.8202e-07
8.80946e-07
8.80946e-07
8.80946e-07
8.82171e-07
8.82451e-07
8.83044e-07
8.82428e-07
8.81982e-07
8.80946e-07
8.80948e-07
8.80947e-07
8.80948e-07
8.80946e-07
8.82148e-07
8.82448e-07
8.83047e-07
8.83014e-07
8.8202e-07
8.80946e-07
8.80947e-07
8.80946e-07
8.80947e-07
8.80946e-07
8.80947e-07
8.80946e-07
8.82173e-07
8.82535e-07
8.83058e-07
8.82334e-07
8.80946e-07
8.80948e-07
8.80946e-07
8.80948e-07
8.80946e-07
8.80948e-07
8.80946e-07
8.80948e-07
8.80946e-07
8.82599e-07
8.83214e-07
8.82274e-07
8.80946e-07
8.80947e-07
8.80947e-07
8.80946e-07
8.80947e-07
8.80946e-07
8.80947e-07
8.80947e-07
8.80946e-07
8.82592e-07
8.83234e-07
8.82321e-07
8.80946e-07
8.80948e-07
8.80946e-07
8.80948e-07
8.80946e-07
8.80948e-07
8.80946e-07
8.80948e-07
8.80946e-07
8.82593e-07
8.83234e-07
8.83034e-07
8.82171e-07
8.80946e-07
8.80947e-07
8.80946e-07
8.80947e-07
8.80946e-07
8.80947e-07
8.80946e-07
8.82391e-07
8.82587e-07
8.832e-07
8.83048e-07
8.82451e-07
8.82148e-07
8.80946e-07
8.80948e-07
8.80947e-07
8.80948e-07
8.80946e-07
8.82358e-07
8.82506e-07
8.82625e-07
8.83044e-07
8.82448e-07
8.82173e-07
8.80946e-07
8.80946e-07
8.80946e-07
8.82391e-07
8.82506e-07
8.826e-07
8.83181e-07
8.83047e-07
8.82535e-07
8.82599e-07
8.82592e-07
8.82593e-07
8.82587e-07
8.82625e-07
8.83181e-07
8.83058e-07
8.83214e-07
8.83234e-07
8.83234e-07
8.832e-07
8.74511e-07
8.73831e-07
8.7377e-07
8.73818e-07
8.74531e-07
8.74544e-07
8.74522e-07
8.73925e-07
8.73516e-07
8.72443e-07
8.72443e-07
8.72443e-07
8.73668e-07
8.73947e-07
8.74541e-07
8.73925e-07
8.73479e-07
8.72443e-07
8.72445e-07
8.72443e-07
8.72445e-07
8.72443e-07
8.73645e-07
8.73945e-07
8.74544e-07
8.74511e-07
8.73516e-07
8.72443e-07
8.72444e-07
8.72443e-07
8.72444e-07
8.72443e-07
8.72444e-07
8.72443e-07
8.7367e-07
8.74032e-07
8.74555e-07
8.7383e-07
8.72443e-07
8.72445e-07
8.72443e-07
8.72445e-07
8.72443e-07
8.72445e-07
8.72443e-07
8.72445e-07
8.72443e-07
8.74096e-07
8.7471e-07
8.7377e-07
8.72443e-07
8.72443e-07
8.72444e-07
8.72443e-07
8.72444e-07
8.72443e-07
8.72444e-07
8.72443e-07
8.72443e-07
8.74089e-07
8.74731e-07
8.73818e-07
8.72443e-07
8.72445e-07
8.72443e-07
8.72445e-07
8.72443e-07
8.72445e-07
8.72443e-07
8.72445e-07
8.72443e-07
8.7409e-07
8.74731e-07
8.74531e-07
8.73668e-07
8.72443e-07
8.72444e-07
8.72443e-07
8.72444e-07
8.72443e-07
8.72444e-07
8.72443e-07
8.73888e-07
8.74083e-07
8.74697e-07
8.74544e-07
8.73947e-07
8.73645e-07
8.72443e-07
8.72445e-07
8.72443e-07
8.72445e-07
8.72443e-07
8.73855e-07
8.74003e-07
8.74122e-07
8.74541e-07
8.73945e-07
8.7367e-07
8.72443e-07
8.72443e-07
8.72443e-07
8.73888e-07
8.74003e-07
8.74097e-07
8.74678e-07
8.74544e-07
8.74032e-07
8.74096e-07
8.74089e-07
8.7409e-07
8.74083e-07
8.74122e-07
8.74677e-07
8.74555e-07
8.7471e-07
8.74731e-07
8.74731e-07
8.74697e-07
8.66008e-07
8.65327e-07
8.65267e-07
8.65315e-07
8.66027e-07
8.66041e-07
8.66019e-07
8.65422e-07
8.65013e-07
8.63939e-07
8.6394e-07
8.63939e-07
8.65165e-07
8.65444e-07
8.66037e-07
8.65422e-07
8.64976e-07
8.6394e-07
8.63942e-07
8.6394e-07
8.63942e-07
8.6394e-07
8.65142e-07
8.65442e-07
8.6604e-07
8.66008e-07
8.65013e-07
8.6394e-07
8.63941e-07
8.6394e-07
8.6394e-07
8.6394e-07
8.63941e-07
8.6394e-07
8.65167e-07
8.65529e-07
8.66052e-07
8.65327e-07
8.63939e-07
8.63942e-07
8.6394e-07
8.63941e-07
8.6394e-07
8.63941e-07
8.6394e-07
8.63942e-07
8.63939e-07
8.65592e-07
8.66207e-07
8.65267e-07
8.6394e-07
8.6394e-07
8.6394e-07
8.6394e-07
8.6394e-07
8.6394e-07
8.6394e-07
8.6394e-07
8.6394e-07
8.65586e-07
8.66227e-07
8.65315e-07
8.63939e-07
8.63942e-07
8.6394e-07
8.63941e-07
8.6394e-07
8.63941e-07
8.6394e-07
8.63941e-07
8.63939e-07
8.65587e-07
8.66227e-07
8.66027e-07
8.65165e-07
8.6394e-07
8.63941e-07
8.6394e-07
8.6394e-07
8.6394e-07
8.63941e-07
8.6394e-07
8.65385e-07
8.6558e-07
8.66193e-07
8.66041e-07
8.65444e-07
8.65142e-07
8.6394e-07
8.63942e-07
8.6394e-07
8.63941e-07
8.6394e-07
8.65352e-07
8.655e-07
8.65619e-07
8.66037e-07
8.65442e-07
8.65167e-07
8.63939e-07
8.6394e-07
8.63939e-07
8.65385e-07
8.655e-07
8.65594e-07
8.66174e-07
8.6604e-07
8.65529e-07
8.65592e-07
8.65586e-07
8.65587e-07
8.6558e-07
8.65619e-07
8.66174e-07
8.66052e-07
8.66207e-07
8.66227e-07
8.66227e-07
8.66193e-07
8.57505e-07
8.56824e-07
8.56764e-07
8.56812e-07
8.57524e-07
8.57538e-07
8.57516e-07
8.56919e-07
8.5651e-07
8.55436e-07
8.55437e-07
8.55436e-07
8.56661e-07
8.56941e-07
8.57534e-07
8.56919e-07
8.56472e-07
8.55437e-07
8.55438e-07
8.55437e-07
8.55438e-07
8.55437e-07
8.56638e-07
8.56939e-07
8.57537e-07
8.57505e-07
8.5651e-07
8.55437e-07
8.55438e-07
8.55437e-07
8.55437e-07
8.55437e-07
8.55437e-07
8.55437e-07
8.56664e-07
8.57025e-07
8.57549e-07
8.56824e-07
8.55436e-07
8.55438e-07
8.55437e-07
8.55438e-07
8.55437e-07
8.55438e-07
8.55437e-07
8.55438e-07
8.55436e-07
8.57089e-07
8.57704e-07
8.56764e-07
8.55437e-07
8.55437e-07
8.55437e-07
8.55437e-07
8.55437e-07
8.55437e-07
8.55437e-07
8.55437e-07
8.55437e-07
8.57083e-07
8.57724e-07
8.56812e-07
8.55436e-07
8.55438e-07
8.55437e-07
8.55438e-07
8.55437e-07
8.55438e-07
8.55437e-07
8.55438e-07
8.55436e-07
8.57084e-07
8.57724e-07
8.57524e-07
8.56661e-07
8.55437e-07
8.55437e-07
8.55437e-07
8.55437e-07
8.55437e-07
8.55437e-07
8.55437e-07
8.56881e-07
8.57077e-07
8.5769e-07
8.57538e-07
8.56941e-07
8.56638e-07
8.55437e-07
8.55438e-07
8.55437e-07
8.55438e-07
8.55437e-07
8.56849e-07
8.56997e-07
8.57115e-07
8.57534e-07
8.56939e-07
8.56664e-07
8.55436e-07
8.55437e-07
8.55436e-07
8.56881e-07
8.56997e-07
8.57091e-07
8.57671e-07
8.57537e-07
8.57025e-07
8.57089e-07
8.57083e-07
8.57084e-07
8.57077e-07
8.57115e-07
8.57671e-07
8.57549e-07
8.57704e-07
8.57724e-07
8.57724e-07
8.5769e-07
8.49002e-07
8.48321e-07
8.48261e-07
8.48309e-07
8.49021e-07
8.49035e-07
8.49013e-07
8.48415e-07
8.48007e-07
8.46933e-07
8.46934e-07
8.46933e-07
8.48158e-07
8.48438e-07
8.49031e-07
8.48415e-07
8.47969e-07
8.46934e-07
8.46935e-07
8.46934e-07
8.46935e-07
8.46934e-07
8.48135e-07
8.48435e-07
8.49034e-07
8.49001e-07
8.48007e-07
8.46934e-07
8.46934e-07
8.46934e-07
8.46934e-07
8.46934e-07
8.46934e-07
8.46934e-07
8.48161e-07
8.48522e-07
8.49046e-07
8.48321e-07
8.46933e-07
8.46935e-07
8.46934e-07
8.46935e-07
8.46934e-07
8.46935e-07
8.46934e-07
8.46935e-07
8.46933e-07
8.48586e-07
8.49201e-07
8.48261e-07
8.46934e-07
8.46934e-07
8.46934e-07
8.46934e-07
8.46934e-07
8.46934e-07
8.46934e-07
8.46934e-07
8.46934e-07
8.4858e-07
8.49221e-07
8.48309e-07
8.46933e-07
8.46935e-07
8.46934e-07
8.46935e-07
8.46934e-07
8.46935e-07
8.46934e-07
8.46935e-07
8.46933e-07
8.48581e-07
8.49221e-07
8.49021e-07
8.48158e-07
8.46934e-07
8.46934e-07
8.46934e-07
8.46934e-07
8.46934e-07
8.46934e-07
8.46934e-07
8.48378e-07
8.48574e-07
8.49187e-07
8.49035e-07
8.48438e-07
8.48135e-07
8.46934e-07
8.46935e-07
8.46934e-07
8.46935e-07
8.46934e-07
8.48345e-07
8.48494e-07
8.48612e-07
8.49031e-07
8.48435e-07
8.48161e-07
8.46933e-07
8.46934e-07
8.46933e-07
8.48378e-07
8.48494e-07
8.48588e-07
8.49168e-07
8.49034e-07
8.48522e-07
8.48586e-07
8.4858e-07
8.48581e-07
8.48574e-07
8.48612e-07
8.49168e-07
8.49046e-07
8.49201e-07
8.49221e-07
8.49221e-07
8.49187e-07
8.40498e-07
8.39818e-07
8.39758e-07
8.39805e-07
8.40518e-07
8.40532e-07
8.4051e-07
8.39912e-07
8.39504e-07
8.3843e-07
8.38431e-07
8.3843e-07
8.39655e-07
8.39935e-07
8.40528e-07
8.39912e-07
8.39466e-07
8.3843e-07
8.38432e-07
8.38431e-07
8.38432e-07
8.3843e-07
8.39632e-07
8.39932e-07
8.40531e-07
8.40498e-07
8.39504e-07
8.3843e-07
8.38431e-07
8.3843e-07
8.38431e-07
8.3843e-07
8.38431e-07
8.3843e-07
8.39658e-07
8.40019e-07
8.40543e-07
8.39818e-07
8.3843e-07
8.38432e-07
8.3843e-07
8.38432e-07
8.38431e-07
8.38432e-07
8.3843e-07
8.38432e-07
8.3843e-07
8.40083e-07
8.40698e-07
8.39758e-07
8.38431e-07
8.38431e-07
8.38431e-07
8.38431e-07
8.38431e-07
8.38431e-07
8.38431e-07
8.38431e-07
8.38431e-07
8.40077e-07
8.40718e-07
8.39805e-07
8.3843e-07
8.38432e-07
8.3843e-07
8.38432e-07
8.38431e-07
8.38432e-07
8.3843e-07
8.38432e-07