/*--------------------------------*- C++ -*----------------------------------*\
| =========                 |                                                 |
| \\      /  F ield         | OpenFOAM: The Open Source CFD Toolbox           |
|  \\    /   O peration     | Version:  v2012                                 |
|   \\  /    A nd           | Website:  www.openfoam.com                      |
|    \\/     M anipulation  |                                                 |
\*---------------------------------------------------------------------------*/
FoamFile
{
    version     2.0;
    format      ascii;
    class       volScalarField;
    location    "49";
    object      p;
}
// * * * * * * * * * * * * * * * * * * * * * * * * * * * * * * * * * * * * * //

dimensions      [0 2 -2 0 0 0 0];


internalField   nonuniform List<scalar> 
292667
(
1.20511e-06
1.19565e-06
1.19489e-06
1.19496e-06
1.19601e-06
1.20602e-06
1.19586e-06
1.1932e-06
1.19164e-06
1.191e-06
1.19108e-06
1.19192e-06
1.19371e-06
1.19663e-06
1.19586e-06
1.19242e-06
1.19027e-06
1.18909e-06
1.18859e-06
1.18866e-06
1.1893e-06
1.19068e-06
1.1931e-06
1.19685e-06
1.20511e-06
1.1932e-06
1.19027e-06
1.18853e-06
1.18756e-06
1.18714e-06
1.1872e-06
1.18774e-06
1.18887e-06
1.19084e-06
1.19413e-06
1.20477e-06
1.19565e-06
1.19164e-06
1.18909e-06
1.18756e-06
1.18669e-06
1.18632e-06
1.18637e-06
1.18686e-06
1.18786e-06
1.1896e-06
1.19249e-06
1.19933e-06
1.19489e-06
1.191e-06
1.18859e-06
1.18714e-06
1.18632e-06
1.18596e-06
1.18601e-06
1.18647e-06
1.18743e-06
1.18908e-06
1.19183e-06
1.19766e-06
1.19496e-06
1.19108e-06
1.18866e-06
1.1872e-06
1.18637e-06
1.18601e-06
1.18606e-06
1.18653e-06
1.1875e-06
1.18915e-06
1.19192e-06
1.19798e-06
1.19601e-06
1.19192e-06
1.1893e-06
1.18774e-06
1.18686e-06
1.18647e-06
1.18653e-06
1.18703e-06
1.18806e-06
1.18984e-06
1.19281e-06
1.19964e-06
1.20602e-06
1.19371e-06
1.19068e-06
1.18887e-06
1.18786e-06
1.18743e-06
1.1875e-06
1.18806e-06
1.18923e-06
1.1913e-06
1.1947e-06
1.20468e-06
1.19663e-06
1.1931e-06
1.19084e-06
1.1896e-06
1.18908e-06
1.18915e-06
1.18984e-06
1.1913e-06
1.19387e-06
1.20028e-06
1.19685e-06
1.19413e-06
1.19249e-06
1.19183e-06
1.19192e-06
1.19281e-06
1.1947e-06
1.20028e-06
1.20477e-06
1.19933e-06
1.19766e-06
1.19798e-06
1.19964e-06
1.20468e-06
1.17848e-06
1.17761e-06
1.17758e-06
1.17762e-06
1.17845e-06
1.17835e-06
1.17853e-06
1.17785e-06
1.17746e-06
1.17605e-06
1.17603e-06
1.17605e-06
1.17762e-06
1.17788e-06
1.17854e-06
1.17785e-06
1.17746e-06
1.1761e-06
1.17604e-06
1.17609e-06
1.17604e-06
1.1761e-06
1.1776e-06
1.17786e-06
1.17852e-06
1.17848e-06
1.17746e-06
1.1761e-06
1.17603e-06
1.17607e-06
1.17606e-06
1.17607e-06
1.17603e-06
1.1761e-06
1.17759e-06
1.17788e-06
1.17859e-06
1.17761e-06
1.17605e-06
1.17604e-06
1.17607e-06
1.17603e-06
1.17603e-06
1.17603e-06
1.17607e-06
1.17604e-06
1.17605e-06
1.17802e-06
1.17871e-06
1.17758e-06
1.17603e-06
1.17609e-06
1.17606e-06
1.17603e-06
1.17603e-06
1.17603e-06
1.17606e-06
1.17609e-06
1.17603e-06
1.17803e-06
1.17861e-06
1.17762e-06
1.17605e-06
1.17604e-06
1.17607e-06
1.17603e-06
1.17603e-06
1.17603e-06
1.17607e-06
1.17604e-06
1.17605e-06
1.17803e-06
1.17864e-06
1.17845e-06
1.17762e-06
1.1761e-06
1.17603e-06
1.17607e-06
1.17606e-06
1.17607e-06
1.17603e-06
1.1761e-06
1.17776e-06
1.17793e-06
1.17868e-06
1.17835e-06
1.17788e-06
1.1776e-06
1.1761e-06
1.17604e-06
1.17609e-06
1.17604e-06
1.1761e-06
1.17773e-06
1.1779e-06
1.17792e-06
1.17854e-06
1.17786e-06
1.17759e-06
1.17605e-06
1.17603e-06
1.17605e-06
1.17776e-06
1.1779e-06
1.17798e-06
1.17865e-06
1.17852e-06
1.17788e-06
1.17802e-06
1.17803e-06
1.17803e-06
1.17793e-06
1.17792e-06
1.17865e-06
1.17859e-06
1.17871e-06
1.17861e-06
1.17864e-06
1.17868e-06
1.16845e-06
1.16757e-06
1.16751e-06
1.16756e-06
1.16843e-06
1.16848e-06
1.16848e-06
1.16771e-06
1.16726e-06
1.16589e-06
1.16588e-06
1.16589e-06
1.16742e-06
1.16773e-06
1.16845e-06
1.16771e-06
1.16725e-06
1.16593e-06
1.16593e-06
1.16597e-06
1.16593e-06
1.16593e-06
1.16742e-06
1.16773e-06
1.16846e-06
1.16845e-06
1.16726e-06
1.16593e-06
1.16595e-06
1.166e-06
1.166e-06
1.166e-06
1.16595e-06
1.16593e-06
1.16742e-06
1.16779e-06
1.1685e-06
1.16757e-06
1.16589e-06
1.16593e-06
1.166e-06
1.16601e-06
1.16603e-06
1.16601e-06
1.166e-06
1.16593e-06
1.16589e-06
1.16783e-06
1.16863e-06
1.16751e-06
1.16588e-06
1.16597e-06
1.166e-06
1.16603e-06
1.16604e-06
1.16603e-06
1.166e-06
1.16597e-06
1.16588e-06
1.16783e-06
1.16864e-06
1.16756e-06
1.16589e-06
1.16593e-06
1.166e-06
1.16601e-06
1.16603e-06
1.16601e-06
1.166e-06
1.16593e-06
1.16589e-06
1.16783e-06
1.16864e-06
1.16843e-06
1.16742e-06
1.16593e-06
1.16595e-06
1.166e-06
1.166e-06
1.166e-06
1.16595e-06
1.16593e-06
1.16761e-06
1.16782e-06
1.16863e-06
1.16848e-06
1.16773e-06
1.16742e-06
1.16593e-06
1.16593e-06
1.16597e-06
1.16593e-06
1.16593e-06
1.16759e-06
1.16776e-06
1.16786e-06
1.16846e-06
1.16773e-06
1.16742e-06
1.16589e-06
1.16588e-06
1.16589e-06
1.16761e-06
1.16776e-06
1.16784e-06
1.16861e-06
1.16846e-06
1.16779e-06
1.16783e-06
1.16783e-06
1.16783e-06
1.16782e-06
1.16786e-06
1.16861e-06
1.1685e-06
1.16863e-06
1.16864e-06
1.16864e-06
1.16863e-06
1.15846e-06
1.15757e-06
1.15751e-06
1.15755e-06
1.15844e-06
1.15849e-06
1.15849e-06
1.1577e-06
1.15723e-06
1.15584e-06
1.15584e-06
1.15584e-06
1.15738e-06
1.15771e-06
1.15847e-06
1.1577e-06
1.15721e-06
1.15587e-06
1.15588e-06
1.1559e-06
1.15588e-06
1.15587e-06
1.15737e-06
1.15771e-06
1.15847e-06
1.15846e-06
1.15723e-06
1.15587e-06
1.15589e-06
1.15593e-06
1.15593e-06
1.15593e-06
1.15589e-06
1.15587e-06
1.15739e-06
1.15779e-06
1.15852e-06
1.15757e-06
1.15584e-06
1.15588e-06
1.15593e-06
1.15594e-06
1.15596e-06
1.15594e-06
1.15593e-06
1.15588e-06
1.15584e-06
1.15782e-06
1.15864e-06
1.15751e-06
1.15584e-06
1.1559e-06
1.15593e-06
1.15596e-06
1.15596e-06
1.15596e-06
1.15593e-06
1.1559e-06
1.15584e-06
1.15781e-06
1.15865e-06
1.15755e-06
1.15584e-06
1.15588e-06
1.15593e-06
1.15594e-06
1.15596e-06
1.15594e-06
1.15593e-06
1.15588e-06
1.15584e-06
1.15781e-06
1.15865e-06
1.15844e-06
1.15738e-06
1.15587e-06
1.15589e-06
1.15593e-06
1.15593e-06
1.15593e-06
1.15589e-06
1.15587e-06
1.15759e-06
1.15782e-06
1.15864e-06
1.15849e-06
1.15771e-06
1.15737e-06
1.15587e-06
1.15588e-06
1.1559e-06
1.15588e-06
1.15587e-06
1.15756e-06
1.15774e-06
1.15788e-06
1.15847e-06
1.15771e-06
1.15739e-06
1.15584e-06
1.15584e-06
1.15584e-06
1.15759e-06
1.15774e-06
1.15785e-06
1.15863e-06
1.15847e-06
1.15779e-06
1.15782e-06
1.15781e-06
1.15781e-06
1.15782e-06
1.15788e-06
1.15863e-06
1.15852e-06
1.15864e-06
1.15865e-06
1.15865e-06
1.15864e-06
1.14847e-06
1.14758e-06
1.14751e-06
1.14756e-06
1.14845e-06
1.1485e-06
1.1485e-06
1.14771e-06
1.14723e-06
1.14583e-06
1.14583e-06
1.14583e-06
1.14738e-06
1.14771e-06
1.14848e-06
1.14771e-06
1.1472e-06
1.14584e-06
1.14585e-06
1.14586e-06
1.14585e-06
1.14584e-06
1.14736e-06
1.14771e-06
1.14848e-06
1.14847e-06
1.14723e-06
1.14584e-06
1.14586e-06
1.14588e-06
1.14588e-06
1.14588e-06
1.14586e-06
1.14584e-06
1.14738e-06
1.14779e-06
1.14853e-06
1.14758e-06
1.14583e-06
1.14585e-06
1.14588e-06
1.14589e-06
1.1459e-06
1.14589e-06
1.14588e-06
1.14585e-06
1.14583e-06
1.14782e-06
1.14865e-06
1.14751e-06
1.14583e-06
1.14586e-06
1.14588e-06
1.1459e-06
1.14591e-06
1.1459e-06
1.14588e-06
1.14586e-06
1.14583e-06
1.14781e-06
1.14866e-06
1.14756e-06
1.14583e-06
1.14585e-06
1.14588e-06
1.14589e-06
1.1459e-06
1.14589e-06
1.14588e-06
1.14585e-06
1.14583e-06
1.14781e-06
1.14866e-06
1.14845e-06
1.14738e-06
1.14584e-06
1.14586e-06
1.14588e-06
1.14588e-06
1.14588e-06
1.14586e-06
1.14584e-06
1.14758e-06
1.14783e-06
1.14865e-06
1.1485e-06
1.14771e-06
1.14736e-06
1.14584e-06
1.14585e-06
1.14586e-06
1.14585e-06
1.14584e-06
1.14755e-06
1.14774e-06
1.14789e-06
1.14848e-06
1.14771e-06
1.14738e-06
1.14583e-06
1.14583e-06
1.14583e-06
1.14758e-06
1.14775e-06
1.14786e-06
1.14864e-06
1.14848e-06
1.14779e-06
1.14782e-06
1.14781e-06
1.14781e-06
1.14783e-06
1.14789e-06
1.14864e-06
1.14853e-06
1.14865e-06
1.14866e-06
1.14866e-06
1.14865e-06
1.13848e-06
1.13759e-06
1.13752e-06
1.13757e-06
1.13846e-06
1.13851e-06
1.13851e-06
1.13771e-06
1.13723e-06
1.13582e-06
1.13583e-06
1.13582e-06
1.13738e-06
1.13772e-06
1.13849e-06
1.13771e-06
1.1372e-06
1.13583e-06
1.13584e-06
1.13584e-06
1.13584e-06
1.13583e-06
1.13736e-06
1.13771e-06
1.13849e-06
1.13848e-06
1.13723e-06
1.13583e-06
1.13584e-06
1.13585e-06
1.13585e-06
1.13585e-06
1.13584e-06
1.13583e-06
1.13738e-06
1.1378e-06
1.13853e-06
1.13759e-06
1.13582e-06
1.13584e-06
1.13585e-06
1.13586e-06
1.13587e-06
1.13586e-06
1.13585e-06
1.13584e-06
1.13582e-06
1.13783e-06
1.13866e-06
1.13752e-06
1.13583e-06
1.13584e-06
1.13586e-06
1.13587e-06
1.13587e-06
1.13587e-06
1.13586e-06
1.13584e-06
1.13583e-06
1.13781e-06
1.13866e-06
1.13757e-06
1.13582e-06
1.13584e-06
1.13585e-06
1.13586e-06
1.13587e-06
1.13586e-06
1.13585e-06
1.13584e-06
1.13582e-06
1.13782e-06
1.13866e-06
1.13846e-06
1.13738e-06
1.13583e-06
1.13584e-06
1.13585e-06
1.13586e-06
1.13585e-06
1.13584e-06
1.13583e-06
1.13758e-06
1.13783e-06
1.13866e-06
1.13851e-06
1.13772e-06
1.13736e-06
1.13583e-06
1.13584e-06
1.13584e-06
1.13584e-06
1.13583e-06
1.13755e-06
1.13775e-06
1.13789e-06
1.13849e-06
1.13771e-06
1.13738e-06
1.13582e-06
1.13583e-06
1.13582e-06
1.13758e-06
1.13775e-06
1.13787e-06
1.13865e-06
1.13849e-06
1.1378e-06
1.13783e-06
1.13781e-06
1.13782e-06
1.13783e-06
1.13789e-06
1.13865e-06
1.13853e-06
1.13866e-06
1.13866e-06
1.13866e-06
1.13866e-06
1.12849e-06
1.12759e-06
1.12752e-06
1.12757e-06
1.12846e-06
1.12852e-06
1.12852e-06
1.12772e-06
1.12724e-06
1.12583e-06
1.12583e-06
1.12583e-06
1.12738e-06
1.12772e-06
1.12849e-06
1.12772e-06
1.1272e-06
1.12583e-06
1.12583e-06
1.12584e-06
1.12583e-06
1.12583e-06
1.12736e-06
1.12772e-06
1.1285e-06
1.12849e-06
1.12724e-06
1.12583e-06
1.12584e-06
1.12584e-06
1.12584e-06
1.12584e-06
1.12584e-06
1.12583e-06
1.12739e-06
1.1278e-06
1.12854e-06
1.12759e-06
1.12583e-06
1.12583e-06
1.12584e-06
1.12585e-06
1.12585e-06
1.12585e-06
1.12584e-06
1.12583e-06
1.12583e-06
1.12783e-06
1.12867e-06
1.12752e-06
1.12583e-06
1.12584e-06
1.12584e-06
1.12585e-06
1.12585e-06
1.12585e-06
1.12584e-06
1.12584e-06
1.12583e-06
1.12782e-06
1.12867e-06
1.12757e-06
1.12583e-06
1.12583e-06
1.12584e-06
1.12585e-06
1.12585e-06
1.12585e-06
1.12584e-06
1.12583e-06
1.12583e-06
1.12782e-06
1.12867e-06
1.12846e-06
1.12738e-06
1.12583e-06
1.12584e-06
1.12584e-06
1.12584e-06
1.12584e-06
1.12584e-06
1.12583e-06
1.12759e-06
1.12784e-06
1.12867e-06
1.12852e-06
1.12772e-06
1.12736e-06
1.12583e-06
1.12583e-06
1.12584e-06
1.12583e-06
1.12583e-06
1.12755e-06
1.12776e-06
1.1279e-06
1.12849e-06
1.12772e-06
1.12739e-06
1.12583e-06
1.12583e-06
1.12583e-06
1.12759e-06
1.12776e-06
1.12788e-06
1.12865e-06
1.1285e-06
1.1278e-06
1.12783e-06
1.12782e-06
1.12782e-06
1.12784e-06
1.1279e-06
1.12865e-06
1.12854e-06
1.12867e-06
1.12867e-06
1.12867e-06
1.12867e-06
1.11849e-06
1.1176e-06
1.11753e-06
1.11758e-06
1.11847e-06
1.11853e-06
1.11853e-06
1.11772e-06
1.11724e-06
1.11583e-06
1.11583e-06
1.11583e-06
1.11739e-06
1.11773e-06
1.1185e-06
1.11772e-06
1.11721e-06
1.11583e-06
1.11583e-06
1.11584e-06
1.11583e-06
1.11583e-06
1.11737e-06
1.11773e-06
1.1185e-06
1.11849e-06
1.11724e-06
1.11583e-06
1.11584e-06
1.11584e-06
1.11584e-06
1.11584e-06
1.11584e-06
1.11583e-06
1.11739e-06
1.11781e-06
1.11855e-06
1.1176e-06
1.11583e-06
1.11583e-06
1.11584e-06
1.11584e-06
1.11584e-06
1.11584e-06
1.11584e-06
1.11583e-06
1.11583e-06
1.11784e-06
1.11867e-06
1.11753e-06
1.11583e-06
1.11584e-06
1.11584e-06
1.11584e-06
1.11585e-06
1.11584e-06
1.11584e-06
1.11584e-06
1.11583e-06
1.11782e-06
1.11867e-06
1.11758e-06
1.11583e-06
1.11583e-06
1.11584e-06
1.11584e-06
1.11584e-06
1.11584e-06
1.11584e-06
1.11584e-06
1.11583e-06
1.11783e-06
1.11868e-06
1.11847e-06
1.11739e-06
1.11583e-06
1.11584e-06
1.11584e-06
1.11584e-06
1.11584e-06
1.11584e-06
1.11583e-06
1.11759e-06
1.11785e-06
1.11867e-06
1.11853e-06
1.11773e-06
1.11737e-06
1.11583e-06
1.11583e-06
1.11584e-06
1.11583e-06
1.11583e-06
1.11756e-06
1.11776e-06
1.11791e-06
1.1185e-06
1.11773e-06
1.11739e-06
1.11583e-06
1.11583e-06
1.11583e-06
1.11759e-06
1.11776e-06
1.11788e-06
1.11866e-06
1.1185e-06
1.11781e-06
1.11784e-06
1.11782e-06
1.11783e-06
1.11785e-06
1.11791e-06
1.11866e-06
1.11855e-06
1.11867e-06
1.11867e-06
1.11868e-06
1.11867e-06
1.1085e-06
1.1076e-06
1.10753e-06
1.10758e-06
1.10848e-06
1.10853e-06
1.10853e-06
1.10773e-06
1.10725e-06
1.10583e-06
1.10584e-06
1.10583e-06
1.10739e-06
1.10773e-06
1.1085e-06
1.10773e-06
1.10721e-06
1.10584e-06
1.10584e-06
1.10584e-06
1.10584e-06
1.10584e-06
1.10737e-06
1.10773e-06
1.10851e-06
1.1085e-06
1.10725e-06
1.10584e-06
1.10584e-06
1.10584e-06
1.10584e-06
1.10584e-06
1.10584e-06
1.10584e-06
1.1074e-06
1.10782e-06
1.10855e-06
1.1076e-06
1.10583e-06
1.10584e-06
1.10584e-06
1.10584e-06
1.10584e-06
1.10584e-06
1.10584e-06
1.10584e-06
1.10583e-06
1.10784e-06
1.10868e-06
1.10753e-06
1.10584e-06
1.10584e-06
1.10584e-06
1.10584e-06
1.10584e-06
1.10584e-06
1.10584e-06
1.10584e-06
1.10584e-06
1.10783e-06
1.10868e-06
1.10758e-06
1.10583e-06
1.10584e-06
1.10584e-06
1.10584e-06
1.10584e-06
1.10584e-06
1.10584e-06
1.10584e-06
1.10583e-06
1.10783e-06
1.10868e-06
1.10848e-06
1.10739e-06
1.10584e-06
1.10584e-06
1.10584e-06
1.10584e-06
1.10584e-06
1.10584e-06
1.10584e-06
1.1076e-06
1.10785e-06
1.10868e-06
1.10853e-06
1.10773e-06
1.10737e-06
1.10584e-06
1.10584e-06
1.10584e-06
1.10584e-06
1.10584e-06
1.10756e-06
1.10777e-06
1.10791e-06
1.1085e-06
1.10773e-06
1.1074e-06
1.10583e-06
1.10584e-06
1.10583e-06
1.1076e-06
1.10777e-06
1.10789e-06
1.10866e-06
1.10851e-06
1.10782e-06
1.10784e-06
1.10783e-06
1.10783e-06
1.10785e-06
1.10791e-06
1.10866e-06
1.10855e-06
1.10868e-06
1.10868e-06
1.10868e-06
1.10868e-06
1.0985e-06
1.09761e-06
1.09754e-06
1.09759e-06
1.09848e-06
1.09854e-06
1.09854e-06
1.09773e-06
1.09725e-06
1.09584e-06
1.09584e-06
1.09584e-06
1.0974e-06
1.09774e-06
1.09851e-06
1.09773e-06
1.09722e-06
1.09584e-06
1.09584e-06
1.09584e-06
1.09584e-06
1.09584e-06
1.09738e-06
1.09774e-06
1.09851e-06
1.0985e-06
1.09725e-06
1.09584e-06
1.09584e-06
1.09584e-06
1.09584e-06
1.09584e-06
1.09584e-06
1.09584e-06
1.0974e-06
1.09782e-06
1.09856e-06
1.09761e-06
1.09584e-06
1.09584e-06
1.09584e-06
1.09584e-06
1.09584e-06
1.09584e-06
1.09584e-06
1.09584e-06
1.09584e-06
1.09785e-06
1.09868e-06
1.09754e-06
1.09584e-06
1.09584e-06
1.09584e-06
1.09584e-06
1.09584e-06
1.09584e-06
1.09584e-06
1.09584e-06
1.09584e-06
1.09783e-06
1.09869e-06
1.09759e-06
1.09584e-06
1.09584e-06
1.09584e-06
1.09584e-06
1.09584e-06
1.09584e-06
1.09584e-06
1.09584e-06
1.09584e-06
1.09784e-06
1.09869e-06
1.09848e-06
1.0974e-06
1.09584e-06
1.09584e-06
1.09584e-06
1.09584e-06
1.09584e-06
1.09584e-06
1.09584e-06
1.0976e-06
1.09786e-06
1.09868e-06
1.09854e-06
1.09774e-06
1.09738e-06
1.09584e-06
1.09584e-06
1.09584e-06
1.09584e-06
1.09584e-06
1.09757e-06
1.09777e-06
1.09792e-06
1.09851e-06
1.09774e-06
1.0974e-06
1.09584e-06
1.09584e-06
1.09584e-06
1.0976e-06
1.09777e-06
1.09789e-06
1.09867e-06
1.09851e-06
1.09782e-06
1.09785e-06
1.09783e-06
1.09784e-06
1.09786e-06
1.09792e-06
1.09867e-06
1.09856e-06
1.09868e-06
1.09869e-06
1.09869e-06
1.09868e-06
1.08851e-06
1.08761e-06
1.08754e-06
1.08759e-06
1.08849e-06
1.08854e-06
1.08854e-06
1.08774e-06
1.08726e-06
1.08584e-06
1.08585e-06
1.08584e-06
1.0874e-06
1.08774e-06
1.08852e-06
1.08774e-06
1.08722e-06
1.08585e-06
1.08585e-06
1.08585e-06
1.08585e-06
1.08585e-06
1.08738e-06
1.08774e-06
1.08852e-06
1.08851e-06
1.08726e-06
1.08585e-06
1.08585e-06
1.08585e-06
1.08585e-06
1.08585e-06
1.08585e-06
1.08585e-06
1.08741e-06
1.08783e-06
1.08856e-06
1.08761e-06
1.08584e-06
1.08585e-06
1.08585e-06
1.08585e-06
1.08585e-06
1.08585e-06
1.08585e-06
1.08585e-06
1.08584e-06
1.08785e-06
1.08869e-06
1.08754e-06
1.08585e-06
1.08585e-06
1.08585e-06
1.08585e-06
1.08585e-06
1.08585e-06
1.08585e-06
1.08585e-06
1.08585e-06
1.08784e-06
1.08869e-06
1.08759e-06
1.08584e-06
1.08585e-06
1.08585e-06
1.08585e-06
1.08585e-06
1.08585e-06
1.08585e-06
1.08585e-06
1.08584e-06
1.08784e-06
1.08869e-06
1.08849e-06
1.0874e-06
1.08585e-06
1.08585e-06
1.08585e-06
1.08585e-06
1.08585e-06
1.08585e-06
1.08585e-06
1.08761e-06
1.08786e-06
1.08869e-06
1.08854e-06
1.08774e-06
1.08738e-06
1.08585e-06
1.08585e-06
1.08585e-06
1.08585e-06
1.08585e-06
1.08757e-06
1.08778e-06
1.08792e-06
1.08852e-06
1.08774e-06
1.08741e-06
1.08584e-06
1.08585e-06
1.08584e-06
1.08761e-06
1.08778e-06
1.0879e-06
1.08868e-06
1.08852e-06
1.08783e-06
1.08785e-06
1.08784e-06
1.08784e-06
1.08786e-06
1.08792e-06
1.08868e-06
1.08856e-06
1.08869e-06
1.08869e-06
1.08869e-06
1.08869e-06
1.07851e-06
1.07762e-06
1.07755e-06
1.0776e-06
1.07849e-06
1.07855e-06
1.07855e-06
1.07775e-06
1.07726e-06
1.07585e-06
1.07585e-06
1.07585e-06
1.07741e-06
1.07775e-06
1.07852e-06
1.07775e-06
1.07723e-06
1.07585e-06
1.07585e-06
1.07585e-06
1.07585e-06
1.07585e-06
1.07739e-06
1.07775e-06
1.07852e-06
1.07851e-06
1.07726e-06
1.07585e-06
1.07585e-06
1.07585e-06
1.07585e-06
1.07585e-06
1.07585e-06
1.07585e-06
1.07741e-06
1.07783e-06
1.07857e-06
1.07762e-06
1.07585e-06
1.07585e-06
1.07585e-06
1.07585e-06
1.07585e-06
1.07585e-06
1.07585e-06
1.07585e-06
1.07585e-06
1.07786e-06
1.07869e-06
1.07755e-06
1.07585e-06
1.07585e-06
1.07585e-06
1.07585e-06
1.07585e-06
1.07585e-06
1.07585e-06
1.07585e-06
1.07585e-06
1.07784e-06
1.0787e-06
1.0776e-06
1.07585e-06
1.07585e-06
1.07585e-06
1.07585e-06
1.07585e-06
1.07585e-06
1.07585e-06
1.07585e-06
1.07585e-06
1.07785e-06
1.0787e-06
1.07849e-06
1.07741e-06
1.07585e-06
1.07585e-06
1.07585e-06
1.07585e-06
1.07585e-06
1.07585e-06
1.07585e-06
1.07761e-06
1.07787e-06
1.0787e-06
1.07855e-06
1.07775e-06
1.07739e-06
1.07585e-06
1.07585e-06
1.07585e-06
1.07585e-06
1.07585e-06
1.07758e-06
1.07778e-06
1.07793e-06
1.07852e-06
1.07775e-06
1.07741e-06
1.07585e-06
1.07585e-06
1.07585e-06
1.07761e-06
1.07778e-06
1.0779e-06
1.07868e-06
1.07852e-06
1.07783e-06
1.07786e-06
1.07784e-06
1.07785e-06
1.07787e-06
1.07793e-06
1.07868e-06
1.07857e-06
1.07869e-06
1.0787e-06
1.0787e-06
1.0787e-06
1.06852e-06
1.06762e-06
1.06755e-06
1.0676e-06
1.0685e-06
1.06855e-06
1.06855e-06
1.06775e-06
1.06727e-06
1.06586e-06
1.06586e-06
1.06586e-06
1.06742e-06
1.06776e-06
1.06853e-06
1.06775e-06
1.06723e-06
1.06586e-06
1.06586e-06
1.06586e-06
1.06586e-06
1.06586e-06
1.06739e-06
1.06775e-06
1.06853e-06
1.06852e-06
1.06727e-06
1.06586e-06
1.06586e-06
1.06586e-06
1.06586e-06
1.06586e-06
1.06586e-06
1.06586e-06
1.06742e-06
1.06784e-06
1.06857e-06
1.06762e-06
1.06586e-06
1.06586e-06
1.06586e-06
1.06586e-06
1.06586e-06
1.06586e-06
1.06586e-06
1.06586e-06
1.06586e-06
1.06787e-06
1.0687e-06
1.06755e-06
1.06586e-06
1.06586e-06
1.06586e-06
1.06586e-06
1.06586e-06
1.06586e-06
1.06586e-06
1.06586e-06
1.06586e-06
1.06785e-06
1.0687e-06
1.0676e-06
1.06586e-06
1.06586e-06
1.06586e-06
1.06586e-06
1.06586e-06
1.06586e-06
1.06586e-06
1.06586e-06
1.06586e-06
1.06786e-06
1.0687e-06
1.0685e-06
1.06742e-06
1.06586e-06
1.06586e-06
1.06586e-06
1.06586e-06
1.06586e-06
1.06586e-06
1.06586e-06
1.06762e-06
1.06787e-06
1.0687e-06
1.06855e-06
1.06776e-06
1.06739e-06
1.06586e-06
1.06586e-06
1.06586e-06
1.06586e-06
1.06586e-06
1.06758e-06
1.06779e-06
1.06793e-06
1.06853e-06
1.06775e-06
1.06742e-06
1.06586e-06
1.06586e-06
1.06586e-06
1.06762e-06
1.06779e-06
1.06791e-06
1.06869e-06
1.06853e-06
1.06784e-06
1.06787e-06
1.06785e-06
1.06786e-06
1.06787e-06
1.06793e-06
1.06869e-06
1.06857e-06
1.0687e-06
1.0687e-06
1.0687e-06
1.0687e-06
1.05852e-06
1.05763e-06
1.05756e-06
1.05761e-06
1.0585e-06
1.05856e-06
1.05856e-06
1.05776e-06
1.05727e-06
1.05586e-06
1.05586e-06
1.05586e-06
1.05742e-06
1.05776e-06
1.05853e-06
1.05776e-06
1.05724e-06
1.05586e-06
1.05586e-06
1.05586e-06
1.05586e-06
1.05586e-06
1.0574e-06
1.05776e-06
1.05854e-06
1.05852e-06
1.05727e-06
1.05586e-06
1.05586e-06
1.05586e-06
1.05586e-06
1.05586e-06
1.05586e-06
1.05586e-06
1.05742e-06
1.05784e-06
1.05858e-06
1.05763e-06
1.05586e-06
1.05586e-06
1.05586e-06
1.05586e-06
1.05586e-06
1.05586e-06
1.05586e-06
1.05586e-06
1.05586e-06
1.05787e-06
1.0587e-06
1.05756e-06
1.05586e-06
1.05586e-06
1.05586e-06
1.05586e-06
1.05586e-06
1.05586e-06
1.05586e-06
1.05586e-06
1.05586e-06
1.05785e-06
1.05871e-06
1.05761e-06
1.05586e-06
1.05586e-06
1.05586e-06
1.05586e-06
1.05586e-06
1.05586e-06
1.05586e-06
1.05586e-06
1.05586e-06
1.05786e-06
1.05871e-06
1.0585e-06
1.05742e-06
1.05586e-06
1.05586e-06
1.05586e-06
1.05586e-06
1.05586e-06
1.05586e-06
1.05586e-06
1.05762e-06
1.05788e-06
1.05871e-06
1.05856e-06
1.05776e-06
1.0574e-06
1.05586e-06
1.05586e-06
1.05586e-06
1.05586e-06
1.05586e-06
1.05759e-06
1.05779e-06
1.05794e-06
1.05853e-06
1.05776e-06
1.05742e-06
1.05586e-06
1.05586e-06
1.05586e-06
1.05762e-06
1.05779e-06
1.05791e-06
1.05869e-06
1.05854e-06
1.05784e-06
1.05787e-06
1.05785e-06
1.05786e-06
1.05788e-06
1.05794e-06
1.05869e-06
1.05858e-06
1.0587e-06
1.05871e-06
1.05871e-06
1.05871e-06
1.04853e-06
1.04763e-06
1.04757e-06
1.04761e-06
1.04851e-06
1.04856e-06
1.04856e-06
1.04776e-06
1.04728e-06
1.04587e-06
1.04587e-06
1.04587e-06
1.04743e-06
1.04777e-06
1.04854e-06
1.04776e-06
1.04725e-06
1.04587e-06
1.04587e-06
1.04587e-06
1.04587e-06
1.04587e-06
1.0474e-06
1.04776e-06
1.04854e-06
1.04853e-06
1.04728e-06
1.04587e-06
1.04587e-06
1.04587e-06
1.04587e-06
1.04587e-06
1.04587e-06
1.04587e-06
1.04743e-06
1.04785e-06
1.04858e-06
1.04763e-06
1.04587e-06
1.04587e-06
1.04587e-06
1.04587e-06
1.04587e-06
1.04587e-06
1.04587e-06
1.04587e-06
1.04587e-06
1.04788e-06
1.04871e-06
1.04757e-06
1.04587e-06
1.04587e-06
1.04587e-06
1.04587e-06
1.04587e-06
1.04587e-06
1.04587e-06
1.04587e-06
1.04587e-06
1.04786e-06
1.04871e-06
1.04761e-06
1.04587e-06
1.04587e-06
1.04587e-06
1.04587e-06
1.04587e-06
1.04587e-06
1.04587e-06
1.04587e-06
1.04587e-06
1.04787e-06
1.04871e-06
1.04851e-06
1.04743e-06
1.04587e-06
1.04587e-06
1.04587e-06
1.04587e-06
1.04587e-06
1.04587e-06
1.04587e-06
1.04763e-06
1.04788e-06
1.04871e-06
1.04856e-06
1.04777e-06
1.0474e-06
1.04587e-06
1.04587e-06
1.04587e-06
1.04587e-06
1.04587e-06
1.0476e-06
1.0478e-06
1.04795e-06
1.04854e-06
1.04776e-06
1.04743e-06
1.04587e-06
1.04587e-06
1.04587e-06
1.04763e-06
1.0478e-06
1.04792e-06
1.0487e-06
1.04854e-06
1.04785e-06
1.04788e-06
1.04786e-06
1.04787e-06
1.04788e-06
1.04795e-06
1.0487e-06
1.04858e-06
1.04871e-06
1.04871e-06
1.04871e-06
1.04871e-06
1.03854e-06
1.03764e-06
1.03757e-06
1.03762e-06
1.03851e-06
1.03857e-06
1.03857e-06
1.03777e-06
1.03728e-06
1.03587e-06
1.03587e-06
1.03587e-06
1.03743e-06
1.03777e-06
1.03854e-06
1.03777e-06
1.03725e-06
1.03587e-06
1.03587e-06
1.03587e-06
1.03587e-06
1.03587e-06
1.03741e-06
1.03777e-06
1.03855e-06
1.03854e-06
1.03728e-06
1.03587e-06
1.03587e-06
1.03587e-06
1.03587e-06
1.03587e-06
1.03587e-06
1.03587e-06
1.03743e-06
1.03785e-06
1.03859e-06
1.03764e-06
1.03587e-06
1.03587e-06
1.03587e-06
1.03587e-06
1.03587e-06
1.03587e-06
1.03587e-06
1.03587e-06
1.03587e-06
1.03788e-06
1.03872e-06
1.03757e-06
1.03587e-06
1.03587e-06
1.03587e-06
1.03587e-06
1.03587e-06
1.03587e-06
1.03587e-06
1.03587e-06
1.03587e-06
1.03786e-06
1.03872e-06
1.03762e-06
1.03587e-06
1.03587e-06
1.03587e-06
1.03587e-06
1.03587e-06
1.03587e-06
1.03587e-06
1.03587e-06
1.03587e-06
1.03787e-06
1.03872e-06
1.03851e-06
1.03743e-06
1.03587e-06
1.03587e-06
1.03587e-06
1.03587e-06
1.03587e-06
1.03587e-06
1.03587e-06
1.03764e-06
1.03789e-06
1.03872e-06
1.03857e-06
1.03777e-06
1.03741e-06
1.03587e-06
1.03587e-06
1.03587e-06
1.03587e-06
1.03587e-06
1.0376e-06
1.0378e-06
1.03795e-06
1.03854e-06
1.03777e-06
1.03743e-06
1.03587e-06
1.03587e-06
1.03587e-06
1.03764e-06
1.0378e-06
1.03793e-06
1.0387e-06
1.03855e-06
1.03785e-06
1.03788e-06
1.03786e-06
1.03787e-06
1.03789e-06
1.03795e-06
1.0387e-06
1.03859e-06
1.03872e-06
1.03872e-06
1.03872e-06
1.03872e-06
1.02854e-06
1.02765e-06
1.02758e-06
1.02762e-06
1.02852e-06
1.02857e-06
1.02857e-06
1.02777e-06
1.02729e-06
1.02588e-06
1.02588e-06
1.02588e-06
1.02744e-06
1.02778e-06
1.02855e-06
1.02777e-06
1.02726e-06
1.02588e-06
1.02588e-06
1.02588e-06
1.02588e-06
1.02588e-06
1.02741e-06
1.02777e-06
1.02855e-06
1.02854e-06
1.02729e-06
1.02588e-06
1.02588e-06
1.02588e-06
1.02588e-06
1.02588e-06
1.02588e-06
1.02588e-06
1.02744e-06
1.02786e-06
1.0286e-06
1.02765e-06
1.02588e-06
1.02588e-06
1.02588e-06
1.02588e-06
1.02588e-06
1.02588e-06
1.02588e-06
1.02588e-06
1.02588e-06
1.02789e-06
1.02872e-06
1.02758e-06
1.02588e-06
1.02588e-06
1.02588e-06
1.02588e-06
1.02588e-06
1.02588e-06
1.02588e-06
1.02588e-06
1.02588e-06
1.02787e-06
1.02872e-06
1.02762e-06
1.02588e-06
1.02588e-06
1.02588e-06
1.02588e-06
1.02588e-06
1.02588e-06
1.02588e-06
1.02588e-06
1.02588e-06
1.02788e-06
1.02872e-06
1.02852e-06
1.02744e-06
1.02588e-06
1.02588e-06
1.02588e-06
1.02588e-06
1.02588e-06
1.02588e-06
1.02588e-06
1.02764e-06
1.02789e-06
1.02872e-06
1.02857e-06
1.02778e-06
1.02741e-06
1.02588e-06
1.02588e-06
1.02588e-06
1.02588e-06
1.02588e-06
1.02761e-06
1.02781e-06
1.02796e-06
1.02855e-06
1.02777e-06
1.02744e-06
1.02588e-06
1.02588e-06
1.02588e-06
1.02764e-06
1.02781e-06
1.02793e-06
1.02871e-06
1.02855e-06
1.02786e-06
1.02789e-06
1.02787e-06
1.02788e-06
1.02789e-06
1.02796e-06
1.02871e-06
1.0286e-06
1.02872e-06
1.02872e-06
1.02872e-06
1.02872e-06
1.01855e-06
1.01765e-06
1.01758e-06
1.01763e-06
1.01852e-06
1.01858e-06
1.01858e-06
1.01778e-06
1.0173e-06
1.01588e-06
1.01588e-06
1.01588e-06
1.01744e-06
1.01778e-06
1.01855e-06
1.01778e-06
1.01726e-06
1.01588e-06
1.01588e-06
1.01588e-06
1.01588e-06
1.01588e-06
1.01742e-06
1.01778e-06
1.01856e-06
1.01855e-06
1.0173e-06
1.01588e-06
1.01588e-06
1.01588e-06
1.01588e-06
1.01588e-06
1.01588e-06
1.01588e-06
1.01744e-06
1.01786e-06
1.0186e-06
1.01765e-06
1.01588e-06
1.01588e-06
1.01588e-06
1.01588e-06
1.01588e-06
1.01588e-06
1.01588e-06
1.01588e-06
1.01588e-06
1.01789e-06
1.01873e-06
1.01758e-06
1.01588e-06
1.01588e-06
1.01588e-06
1.01588e-06
1.01588e-06
1.01588e-06
1.01588e-06
1.01588e-06
1.01588e-06
1.01787e-06
1.01873e-06
1.01763e-06
1.01588e-06
1.01588e-06
1.01588e-06
1.01588e-06
1.01588e-06
1.01588e-06
1.01588e-06
1.01588e-06
1.01588e-06
1.01788e-06
1.01873e-06
1.01852e-06
1.01744e-06
1.01588e-06
1.01588e-06
1.01588e-06
1.01588e-06
1.01588e-06
1.01588e-06
1.01588e-06
1.01765e-06
1.0179e-06
1.01873e-06
1.01858e-06
1.01778e-06
1.01742e-06
1.01588e-06
1.01588e-06
1.01588e-06
1.01588e-06
1.01588e-06
1.01761e-06
1.01782e-06
1.01796e-06
1.01855e-06
1.01778e-06
1.01744e-06
1.01588e-06
1.01588e-06
1.01588e-06
1.01765e-06
1.01782e-06
1.01794e-06
1.01871e-06
1.01856e-06
1.01786e-06
1.01789e-06
1.01787e-06
1.01788e-06
1.0179e-06
1.01796e-06
1.01871e-06
1.0186e-06
1.01873e-06
1.01873e-06
1.01873e-06
1.01873e-06
1.00855e-06
1.00766e-06
1.00759e-06
1.00764e-06
1.00853e-06
1.00858e-06
1.00858e-06
1.00778e-06
1.0073e-06
1.00589e-06
1.00589e-06
1.00589e-06
1.00745e-06
1.00779e-06
1.00856e-06
1.00778e-06
1.00727e-06
1.00589e-06
1.00589e-06
1.00589e-06
1.00589e-06
1.00589e-06
1.00742e-06
1.00779e-06
1.00856e-06
1.00855e-06
1.0073e-06
1.00589e-06
1.00589e-06
1.00589e-06
1.00589e-06
1.00589e-06
1.00589e-06
1.00589e-06
1.00745e-06
1.00787e-06
1.00861e-06
1.00766e-06
1.00589e-06
1.00589e-06
1.00589e-06
1.00589e-06
1.00589e-06
1.00589e-06
1.00589e-06
1.00589e-06
1.00589e-06
1.0079e-06
1.00873e-06
1.00759e-06
1.00589e-06
1.00589e-06
1.00589e-06
1.00589e-06
1.00589e-06
1.00589e-06
1.00589e-06
1.00589e-06
1.00589e-06
1.00788e-06
1.00873e-06
1.00764e-06
1.00589e-06
1.00589e-06
1.00589e-06
1.00589e-06
1.00589e-06
1.00589e-06
1.00589e-06
1.00589e-06
1.00589e-06
1.00789e-06
1.00874e-06
1.00853e-06
1.00745e-06
1.00589e-06
1.00589e-06
1.00589e-06
1.00589e-06
1.00589e-06
1.00589e-06
1.00589e-06
1.00765e-06
1.00791e-06
1.00873e-06
1.00858e-06
1.00779e-06
1.00742e-06
1.00589e-06
1.00589e-06
1.00589e-06
1.00589e-06
1.00589e-06
1.00762e-06
1.00782e-06
1.00797e-06
1.00856e-06
1.00779e-06
1.00745e-06
1.00589e-06
1.00589e-06
1.00589e-06
1.00765e-06
1.00782e-06
1.00794e-06
1.00872e-06
1.00856e-06
1.00787e-06
1.0079e-06
1.00788e-06
1.00789e-06
1.00791e-06
1.00797e-06
1.00872e-06
1.00861e-06
1.00873e-06
1.00873e-06
1.00874e-06
1.00873e-06
9.98557e-07
9.97661e-07
9.97592e-07
9.97641e-07
9.98535e-07
9.9859e-07
9.9859e-07
9.97788e-07
9.97306e-07
9.95893e-07
9.95893e-07
9.95893e-07
9.97453e-07
9.97793e-07
9.98563e-07
9.97789e-07
9.97272e-07
9.95893e-07
9.95894e-07
9.95893e-07
9.95894e-07
9.95893e-07
9.9743e-07
9.97791e-07
9.98567e-07
9.98557e-07
9.97306e-07
9.95893e-07
9.95894e-07
9.95893e-07
9.95893e-07
9.95893e-07
9.95894e-07
9.95893e-07
9.97454e-07
9.97875e-07
9.98612e-07
9.97661e-07
9.95893e-07
9.95894e-07
9.95893e-07
9.95894e-07
9.95893e-07
9.95894e-07
9.95893e-07
9.95894e-07
9.95893e-07
9.97903e-07
9.98737e-07
9.97592e-07
9.95893e-07
9.95893e-07
9.95893e-07
9.95893e-07
9.95893e-07
9.95893e-07
9.95893e-07
9.95893e-07
9.95893e-07
9.97885e-07
9.9874e-07
9.97641e-07
9.95893e-07
9.95894e-07
9.95893e-07
9.95894e-07
9.95893e-07
9.95894e-07
9.95893e-07
9.95894e-07
9.95893e-07
9.97893e-07
9.98741e-07
9.98535e-07
9.97453e-07
9.95893e-07
9.95894e-07
9.95893e-07
9.95893e-07
9.95893e-07
9.95894e-07
9.95893e-07
9.97657e-07
9.97911e-07
9.98738e-07
9.9859e-07
9.97793e-07
9.9743e-07
9.95893e-07
9.95894e-07
9.95893e-07
9.95894e-07
9.95893e-07
9.97622e-07
9.97826e-07
9.97972e-07
9.98563e-07
9.9779e-07
9.97454e-07
9.95893e-07
9.95893e-07
9.95893e-07
9.97657e-07
9.97826e-07
9.97947e-07
9.98724e-07
9.98567e-07
9.97875e-07
9.97903e-07
9.97885e-07
9.97893e-07
9.97911e-07
9.97972e-07
9.98724e-07
9.98612e-07
9.98737e-07
9.9874e-07
9.98741e-07
9.98738e-07
9.88562e-07
9.87667e-07
9.87597e-07
9.87646e-07
9.88541e-07
9.88596e-07
9.88596e-07
9.87794e-07
9.87312e-07
9.85898e-07
9.85899e-07
9.85898e-07
9.87458e-07
9.87798e-07
9.88569e-07
9.87794e-07
9.87278e-07
9.85898e-07
9.85899e-07
9.85899e-07
9.85899e-07
9.85898e-07
9.87435e-07
9.87796e-07
9.88573e-07
9.88562e-07
9.87312e-07
9.85898e-07
9.85899e-07
9.85898e-07
9.85899e-07
9.85898e-07
9.85899e-07
9.85898e-07
9.87459e-07
9.8788e-07
9.88617e-07
9.87667e-07
9.85898e-07
9.85899e-07
9.85898e-07
9.85899e-07
9.85899e-07
9.85899e-07
9.85898e-07
9.85899e-07
9.85898e-07
9.87908e-07
9.88742e-07
9.87597e-07
9.85899e-07
9.85899e-07
9.85899e-07
9.85899e-07
9.85899e-07
9.85899e-07
9.85899e-07
9.85899e-07
9.85899e-07
9.87891e-07
9.88745e-07