/*--------------------------------*- C++ -*----------------------------------*\
| =========                 |                                                 |
| \\      /  F ield         | OpenFOAM: The Open Source CFD Toolbox           |
|  \\    /   O peration     | Version:  v2012                                 |
|   \\  /    A nd           | Website:  www.openfoam.com                      |
|    \\/     M anipulation  |                                                 |
\*---------------------------------------------------------------------------*/
FoamFile
{
    version     2.0;
    format      ascii;
    class       volScalarField;
    location    "54";
    object      p;
}
// * * * * * * * * * * * * * * * * * * * * * * * * * * * * * * * * * * * * * //

dimensions      [0 2 -2 0 0 0 0];


internalField   nonuniform List<scalar> 
292667
(
1.16408e-06
1.15478e-06
1.15404e-06
1.15411e-06
1.15512e-06
1.16497e-06
1.15499e-06
1.15243e-06
1.15093e-06
1.15031e-06
1.15039e-06
1.1512e-06
1.15292e-06
1.15572e-06
1.15499e-06
1.15168e-06
1.14961e-06
1.14847e-06
1.14799e-06
1.14806e-06
1.14868e-06
1.15e-06
1.15234e-06
1.15592e-06
1.16408e-06
1.15243e-06
1.14961e-06
1.14794e-06
1.147e-06
1.1466e-06
1.14665e-06
1.14717e-06
1.14826e-06
1.15017e-06
1.15332e-06
1.16367e-06
1.15478e-06
1.15093e-06
1.14847e-06
1.147e-06
1.14616e-06
1.1458e-06
1.14585e-06
1.14632e-06
1.14729e-06
1.14897e-06
1.15175e-06
1.15834e-06
1.15404e-06
1.15031e-06
1.14799e-06
1.1466e-06
1.1458e-06
1.14546e-06
1.1455e-06
1.14595e-06
1.14688e-06
1.14847e-06
1.15111e-06
1.15673e-06
1.15411e-06
1.15039e-06
1.14806e-06
1.14665e-06
1.14585e-06
1.1455e-06
1.14555e-06
1.14601e-06
1.14694e-06
1.14854e-06
1.1512e-06
1.15704e-06
1.15512e-06
1.1512e-06
1.14868e-06
1.14717e-06
1.14632e-06
1.14595e-06
1.14601e-06
1.14649e-06
1.14748e-06
1.1492e-06
1.15206e-06
1.15865e-06
1.16497e-06
1.15292e-06
1.15e-06
1.14826e-06
1.14729e-06
1.14688e-06
1.14694e-06
1.14748e-06
1.14862e-06
1.15061e-06
1.15387e-06
1.16356e-06
1.15572e-06
1.15234e-06
1.15017e-06
1.14897e-06
1.14847e-06
1.14854e-06
1.1492e-06
1.15061e-06
1.15307e-06
1.1593e-06
1.15592e-06
1.15332e-06
1.15175e-06
1.15111e-06
1.1512e-06
1.15206e-06
1.15387e-06
1.1593e-06
1.16367e-06
1.15834e-06
1.15673e-06
1.15704e-06
1.15865e-06
1.16356e-06
1.1382e-06
1.13739e-06
1.13736e-06
1.1374e-06
1.13819e-06
1.13808e-06
1.13824e-06
1.13761e-06
1.13723e-06
1.1359e-06
1.13588e-06
1.1359e-06
1.1374e-06
1.13765e-06
1.13827e-06
1.13761e-06
1.13723e-06
1.13595e-06
1.13589e-06
1.13594e-06
1.13589e-06
1.13595e-06
1.13738e-06
1.13763e-06
1.13824e-06
1.1382e-06
1.13723e-06
1.13595e-06
1.13588e-06
1.13592e-06
1.1359e-06
1.13592e-06
1.13589e-06
1.13595e-06
1.13737e-06
1.13765e-06
1.13829e-06
1.13739e-06
1.1359e-06
1.13589e-06
1.13592e-06
1.13588e-06
1.13588e-06
1.13588e-06
1.13592e-06
1.13589e-06
1.1359e-06
1.1378e-06
1.13844e-06
1.13736e-06
1.13588e-06
1.13594e-06
1.1359e-06
1.13588e-06
1.13588e-06
1.13588e-06
1.1359e-06
1.13594e-06
1.13588e-06
1.13781e-06
1.13835e-06
1.1374e-06
1.1359e-06
1.13589e-06
1.13592e-06
1.13588e-06
1.13588e-06
1.13588e-06
1.13592e-06
1.13589e-06
1.1359e-06
1.13781e-06
1.13837e-06
1.13819e-06
1.1374e-06
1.13595e-06
1.13589e-06
1.13592e-06
1.1359e-06
1.13592e-06
1.13589e-06
1.13595e-06
1.13755e-06
1.13771e-06
1.13839e-06
1.13808e-06
1.13765e-06
1.13738e-06
1.13595e-06
1.13589e-06
1.13594e-06
1.13589e-06
1.13595e-06
1.13752e-06
1.13768e-06
1.13769e-06
1.13827e-06
1.13763e-06
1.13737e-06
1.1359e-06
1.13588e-06
1.1359e-06
1.13755e-06
1.13768e-06
1.13775e-06
1.13837e-06
1.13824e-06
1.13765e-06
1.1378e-06
1.13781e-06
1.13782e-06
1.13771e-06
1.13769e-06
1.13837e-06
1.13829e-06
1.13844e-06
1.13835e-06
1.13837e-06
1.13839e-06
1.12851e-06
1.12768e-06
1.12762e-06
1.12767e-06
1.1285e-06
1.12854e-06
1.12854e-06
1.12781e-06
1.12738e-06
1.12608e-06
1.12608e-06
1.12608e-06
1.12754e-06
1.12784e-06
1.12852e-06
1.12781e-06
1.12736e-06
1.12613e-06
1.12613e-06
1.12616e-06
1.12613e-06
1.12613e-06
1.12754e-06
1.12784e-06
1.12852e-06
1.12851e-06
1.12738e-06
1.12613e-06
1.12614e-06
1.12619e-06
1.12619e-06
1.12619e-06
1.12614e-06
1.12613e-06
1.12754e-06
1.1279e-06
1.12856e-06
1.12768e-06
1.12608e-06
1.12613e-06
1.12619e-06
1.1262e-06
1.12622e-06
1.1262e-06
1.12619e-06
1.12613e-06
1.12608e-06
1.12795e-06
1.1287e-06
1.12762e-06
1.12608e-06
1.12617e-06
1.12619e-06
1.12622e-06
1.12623e-06
1.12622e-06
1.12619e-06
1.12617e-06
1.12608e-06
1.12795e-06
1.12871e-06
1.12767e-06
1.12608e-06
1.12613e-06
1.12619e-06
1.1262e-06
1.12622e-06
1.1262e-06
1.12619e-06
1.12613e-06
1.12608e-06
1.12795e-06
1.12871e-06
1.1285e-06
1.12754e-06
1.12613e-06
1.12614e-06
1.12619e-06
1.12619e-06
1.12619e-06
1.12614e-06
1.12613e-06
1.12774e-06
1.12794e-06
1.1287e-06
1.12854e-06
1.12784e-06
1.12754e-06
1.12613e-06
1.12613e-06
1.12617e-06
1.12613e-06
1.12613e-06
1.12772e-06
1.12788e-06
1.12797e-06
1.12852e-06
1.12784e-06
1.12754e-06
1.12608e-06
1.12608e-06
1.12608e-06
1.12774e-06
1.12788e-06
1.12796e-06
1.12867e-06
1.12852e-06
1.1279e-06
1.12795e-06
1.12795e-06
1.12795e-06
1.12794e-06
1.12797e-06
1.12867e-06
1.12856e-06
1.1287e-06
1.12871e-06
1.12871e-06
1.1287e-06
1.11886e-06
1.11803e-06
1.11796e-06
1.11801e-06
1.11885e-06
1.1189e-06
1.11889e-06
1.11815e-06
1.11769e-06
1.11638e-06
1.11638e-06
1.11638e-06
1.11784e-06
1.11816e-06
1.11887e-06
1.11815e-06
1.11767e-06
1.1164e-06
1.11641e-06
1.11643e-06
1.11641e-06
1.1164e-06
1.11783e-06
1.11816e-06
1.11888e-06
1.11886e-06
1.11769e-06
1.1164e-06
1.11643e-06
1.11646e-06
1.11646e-06
1.11646e-06
1.11643e-06
1.1164e-06
1.11785e-06
1.11823e-06
1.11892e-06
1.11803e-06
1.11638e-06
1.11641e-06
1.11646e-06
1.11648e-06
1.11649e-06
1.11648e-06
1.11646e-06
1.11641e-06
1.11638e-06
1.11828e-06
1.11905e-06
1.11796e-06
1.11638e-06
1.11643e-06
1.11646e-06
1.11649e-06
1.1165e-06
1.11649e-06
1.11646e-06
1.11643e-06
1.11638e-06
1.11827e-06
1.11906e-06
1.11801e-06
1.11638e-06
1.11641e-06
1.11646e-06
1.11648e-06
1.11649e-06
1.11648e-06
1.11646e-06
1.11641e-06
1.11638e-06
1.11827e-06
1.11906e-06
1.11885e-06
1.11784e-06
1.1164e-06
1.11643e-06
1.11646e-06
1.11646e-06
1.11646e-06
1.11643e-06
1.1164e-06
1.11805e-06
1.11827e-06
1.11905e-06
1.1189e-06
1.11816e-06
1.11783e-06
1.1164e-06
1.11641e-06
1.11643e-06
1.11641e-06
1.1164e-06
1.11803e-06
1.1182e-06
1.11832e-06
1.11887e-06
1.11816e-06
1.11785e-06
1.11638e-06
1.11638e-06
1.11638e-06
1.11805e-06
1.1182e-06
1.1183e-06
1.11903e-06
1.11888e-06
1.11824e-06
1.11828e-06
1.11827e-06
1.11827e-06
1.11827e-06
1.11832e-06
1.11903e-06
1.11892e-06
1.11905e-06
1.11906e-06
1.11906e-06
1.11905e-06
1.10921e-06
1.10837e-06
1.10831e-06
1.10835e-06
1.1092e-06
1.10925e-06
1.10924e-06
1.10849e-06
1.10803e-06
1.1067e-06
1.10671e-06
1.1067e-06
1.10818e-06
1.1085e-06
1.10923e-06
1.10849e-06
1.108e-06
1.10672e-06
1.10673e-06
1.10674e-06
1.10673e-06
1.10672e-06
1.10816e-06
1.1085e-06
1.10923e-06
1.10921e-06
1.10803e-06
1.10672e-06
1.10673e-06
1.10675e-06
1.10676e-06
1.10675e-06
1.10673e-06
1.10672e-06
1.10818e-06
1.10858e-06
1.10927e-06
1.10837e-06
1.1067e-06
1.10673e-06
1.10675e-06
1.10677e-06
1.10678e-06
1.10677e-06
1.10675e-06
1.10673e-06
1.1067e-06
1.10862e-06
1.1094e-06
1.10831e-06
1.10671e-06
1.10674e-06
1.10676e-06
1.10678e-06
1.10678e-06
1.10678e-06
1.10676e-06
1.10674e-06
1.10671e-06
1.10861e-06
1.10941e-06
1.10835e-06
1.1067e-06
1.10673e-06
1.10675e-06
1.10677e-06
1.10678e-06
1.10677e-06
1.10675e-06
1.10673e-06
1.1067e-06
1.10861e-06
1.10941e-06
1.1092e-06
1.10818e-06
1.10672e-06
1.10673e-06
1.10675e-06
1.10676e-06
1.10675e-06
1.10673e-06
1.10672e-06
1.10839e-06
1.10862e-06
1.1094e-06
1.10925e-06
1.1085e-06
1.10816e-06
1.10672e-06
1.10673e-06
1.10674e-06
1.10673e-06
1.10672e-06
1.10836e-06
1.10854e-06
1.10868e-06
1.10923e-06
1.1085e-06
1.10818e-06
1.10671e-06
1.10671e-06
1.10671e-06
1.10839e-06
1.10854e-06
1.10865e-06
1.10938e-06
1.10923e-06
1.10858e-06
1.10862e-06
1.10861e-06
1.10861e-06
1.10862e-06
1.10868e-06
1.10938e-06
1.10927e-06
1.1094e-06
1.10941e-06
1.10941e-06
1.1094e-06
1.09956e-06
1.09872e-06
1.09865e-06
1.0987e-06
1.09955e-06
1.09959e-06
1.09959e-06
1.09884e-06
1.09837e-06
1.09704e-06
1.09704e-06
1.09704e-06
1.09852e-06
1.09885e-06
1.09957e-06
1.09884e-06
1.09834e-06
1.09705e-06
1.09706e-06
1.09706e-06
1.09706e-06
1.09705e-06
1.0985e-06
1.09885e-06
1.09958e-06
1.09956e-06
1.09837e-06
1.09705e-06
1.09706e-06
1.09707e-06
1.09707e-06
1.09707e-06
1.09706e-06
1.09705e-06
1.09852e-06
1.09893e-06
1.09961e-06
1.09872e-06
1.09704e-06
1.09706e-06
1.09707e-06
1.09708e-06
1.09709e-06
1.09708e-06
1.09707e-06
1.09706e-06
1.09704e-06
1.09897e-06
1.09975e-06
1.09865e-06
1.09704e-06
1.09706e-06
1.09707e-06
1.09709e-06
1.09709e-06
1.09709e-06
1.09707e-06
1.09706e-06
1.09704e-06
1.09895e-06
1.09976e-06
1.0987e-06
1.09704e-06
1.09706e-06
1.09707e-06
1.09708e-06
1.09709e-06
1.09708e-06
1.09707e-06
1.09706e-06
1.09704e-06
1.09896e-06
1.09976e-06
1.09955e-06
1.09852e-06
1.09705e-06
1.09706e-06
1.09707e-06
1.09707e-06
1.09707e-06
1.09706e-06
1.09705e-06
1.09873e-06
1.09897e-06
1.09975e-06
1.09959e-06
1.09885e-06
1.0985e-06
1.09705e-06
1.09706e-06
1.09706e-06
1.09706e-06
1.09705e-06
1.0987e-06
1.09889e-06
1.09902e-06
1.09957e-06
1.09885e-06
1.09852e-06
1.09704e-06
1.09704e-06
1.09704e-06
1.09873e-06
1.09889e-06
1.099e-06
1.09973e-06
1.09958e-06
1.09893e-06
1.09897e-06
1.09895e-06
1.09896e-06
1.09897e-06
1.09902e-06
1.09973e-06
1.09961e-06
1.09975e-06
1.09976e-06
1.09976e-06
1.09975e-06
1.08991e-06
1.08907e-06
1.089e-06
1.08905e-06
1.0899e-06
1.08994e-06
1.08994e-06
1.08919e-06
1.08872e-06
1.08739e-06
1.08739e-06
1.08739e-06
1.08887e-06
1.08919e-06
1.08992e-06
1.08919e-06
1.08869e-06
1.08739e-06
1.08739e-06
1.0874e-06
1.08739e-06
1.08739e-06
1.08885e-06
1.08919e-06
1.08992e-06
1.08991e-06
1.08872e-06
1.08739e-06
1.0874e-06
1.0874e-06
1.0874e-06
1.0874e-06
1.0874e-06
1.08739e-06
1.08887e-06
1.08928e-06
1.08996e-06
1.08907e-06
1.08739e-06
1.08739e-06
1.0874e-06
1.08741e-06
1.08741e-06
1.08741e-06
1.0874e-06
1.08739e-06
1.08739e-06
1.08931e-06
1.09009e-06
1.089e-06
1.08739e-06
1.0874e-06
1.0874e-06
1.08741e-06
1.08741e-06
1.08741e-06
1.0874e-06
1.0874e-06
1.08739e-06
1.0893e-06
1.0901e-06
1.08905e-06
1.08739e-06
1.08739e-06
1.0874e-06
1.08741e-06
1.08741e-06
1.08741e-06
1.0874e-06
1.08739e-06
1.08739e-06
1.0893e-06
1.0901e-06
1.0899e-06
1.08887e-06
1.08739e-06
1.0874e-06
1.0874e-06
1.0874e-06
1.0874e-06
1.0874e-06
1.08739e-06
1.08908e-06
1.08932e-06
1.09009e-06
1.08994e-06
1.08919e-06
1.08885e-06
1.08739e-06
1.08739e-06
1.0874e-06
1.08739e-06
1.08739e-06
1.08904e-06
1.08923e-06
1.08937e-06
1.08992e-06
1.08919e-06
1.08887e-06
1.08739e-06
1.08739e-06
1.08739e-06
1.08908e-06
1.08923e-06
1.08935e-06
1.09008e-06
1.08992e-06
1.08928e-06
1.08931e-06
1.0893e-06
1.0893e-06
1.08932e-06
1.08937e-06
1.09008e-06
1.08996e-06
1.09009e-06
1.0901e-06
1.0901e-06
1.09009e-06
1.08026e-06
1.07941e-06
1.07934e-06
1.07939e-06
1.08024e-06
1.08029e-06
1.08028e-06
1.07953e-06
1.07907e-06
1.07773e-06
1.07773e-06
1.07773e-06
1.07921e-06
1.07954e-06
1.08027e-06
1.07953e-06
1.07903e-06
1.07773e-06
1.07774e-06
1.07774e-06
1.07774e-06
1.07773e-06
1.07919e-06
1.07954e-06
1.08027e-06
1.08026e-06
1.07907e-06
1.07773e-06
1.07774e-06
1.07774e-06
1.07774e-06
1.07774e-06
1.07774e-06
1.07773e-06
1.07921e-06
1.07962e-06
1.08031e-06
1.07941e-06
1.07773e-06
1.07774e-06
1.07774e-06
1.07774e-06
1.07774e-06
1.07774e-06
1.07774e-06
1.07774e-06
1.07773e-06
1.07966e-06
1.08044e-06
1.07934e-06
1.07773e-06
1.07774e-06
1.07774e-06
1.07774e-06
1.07774e-06
1.07774e-06
1.07774e-06
1.07774e-06
1.07773e-06
1.07964e-06
1.08045e-06
1.07939e-06
1.07773e-06
1.07774e-06
1.07774e-06
1.07774e-06
1.07774e-06
1.07774e-06
1.07774e-06
1.07774e-06
1.07773e-06
1.07965e-06
1.08045e-06
1.08024e-06
1.07921e-06
1.07773e-06
1.07774e-06
1.07774e-06
1.07774e-06
1.07774e-06
1.07774e-06
1.07773e-06
1.07942e-06
1.07966e-06
1.08044e-06
1.08029e-06
1.07954e-06
1.07919e-06
1.07773e-06
1.07774e-06
1.07774e-06
1.07774e-06
1.07773e-06
1.07939e-06
1.07958e-06
1.07972e-06
1.08027e-06
1.07954e-06
1.07921e-06
1.07773e-06
1.07773e-06
1.07773e-06
1.07942e-06
1.07958e-06
1.07969e-06
1.08042e-06
1.08027e-06
1.07962e-06
1.07966e-06
1.07964e-06
1.07965e-06
1.07966e-06
1.07972e-06
1.08042e-06
1.08031e-06
1.08044e-06
1.08045e-06
1.08045e-06
1.08044e-06
1.0706e-06
1.06976e-06
1.06969e-06
1.06974e-06
1.07059e-06
1.07064e-06
1.07063e-06
1.06988e-06
1.06941e-06
1.06808e-06
1.06808e-06
1.06808e-06
1.06956e-06
1.06989e-06
1.07061e-06
1.06988e-06
1.06938e-06
1.06808e-06
1.06808e-06
1.06808e-06
1.06808e-06
1.06808e-06
1.06954e-06
1.06988e-06
1.07062e-06
1.0706e-06
1.06941e-06
1.06808e-06
1.06808e-06
1.06808e-06
1.06808e-06
1.06808e-06
1.06808e-06
1.06808e-06
1.06956e-06
1.06997e-06
1.07066e-06
1.06976e-06
1.06808e-06
1.06808e-06
1.06808e-06
1.06808e-06
1.06808e-06
1.06808e-06
1.06808e-06
1.06808e-06
1.06808e-06
1.07e-06
1.07079e-06
1.06969e-06
1.06808e-06
1.06808e-06
1.06808e-06
1.06808e-06
1.06808e-06
1.06808e-06
1.06808e-06
1.06808e-06
1.06808e-06
1.06999e-06
1.07079e-06
1.06974e-06
1.06808e-06
1.06808e-06
1.06808e-06
1.06808e-06
1.06808e-06
1.06808e-06
1.06808e-06
1.06808e-06
1.06808e-06
1.07e-06
1.0708e-06
1.07059e-06
1.06956e-06
1.06808e-06
1.06808e-06
1.06808e-06
1.06808e-06
1.06808e-06
1.06808e-06
1.06808e-06
1.06977e-06
1.07001e-06
1.07079e-06
1.07064e-06
1.06989e-06
1.06954e-06
1.06808e-06
1.06808e-06
1.06808e-06
1.06808e-06
1.06808e-06
1.06973e-06
1.06992e-06
1.07006e-06
1.07061e-06
1.06988e-06
1.06956e-06
1.06808e-06
1.06808e-06
1.06808e-06
1.06977e-06
1.06992e-06
1.07004e-06
1.07077e-06
1.07062e-06
1.06997e-06
1.07e-06
1.06999e-06
1.07e-06
1.07001e-06
1.07006e-06
1.07077e-06
1.07065e-06
1.07079e-06
1.07079e-06
1.0708e-06
1.07079e-06
1.06095e-06
1.0601e-06
1.06004e-06
1.06008e-06
1.06094e-06
1.06098e-06
1.06098e-06
1.06022e-06
1.05976e-06
1.05842e-06
1.05842e-06
1.05842e-06
1.05991e-06
1.06023e-06
1.06096e-06
1.06022e-06
1.05972e-06
1.05842e-06
1.05842e-06
1.05842e-06
1.05842e-06
1.05842e-06
1.05988e-06
1.06023e-06
1.06096e-06
1.06095e-06
1.05976e-06
1.05842e-06
1.05842e-06
1.05842e-06
1.05842e-06
1.05842e-06
1.05842e-06
1.05842e-06
1.05991e-06
1.06031e-06
1.061e-06
1.0601e-06
1.05842e-06
1.05842e-06
1.05842e-06
1.05843e-06
1.05843e-06
1.05843e-06
1.05842e-06
1.05842e-06
1.05842e-06
1.06035e-06
1.06113e-06
1.06004e-06
1.05842e-06
1.05842e-06
1.05842e-06
1.05843e-06
1.05843e-06
1.05843e-06
1.05842e-06
1.05842e-06
1.05842e-06
1.06034e-06
1.06114e-06
1.06008e-06
1.05842e-06
1.05842e-06
1.05842e-06
1.05843e-06
1.05843e-06
1.05843e-06
1.05842e-06
1.05842e-06
1.05842e-06
1.06034e-06
1.06114e-06
1.06094e-06
1.05991e-06
1.05842e-06
1.05842e-06
1.05842e-06
1.05842e-06
1.05842e-06
1.05842e-06
1.05842e-06
1.06011e-06
1.06035e-06
1.06113e-06
1.06098e-06
1.06023e-06
1.05988e-06
1.05842e-06
1.05842e-06
1.05842e-06
1.05842e-06
1.05842e-06
1.06008e-06
1.06027e-06
1.06041e-06
1.06096e-06
1.06023e-06
1.05991e-06
1.05842e-06
1.05842e-06
1.05842e-06
1.06011e-06
1.06027e-06
1.06039e-06
1.06112e-06
1.06096e-06
1.06031e-06
1.06035e-06
1.06034e-06
1.06034e-06
1.06035e-06
1.06041e-06
1.06112e-06
1.061e-06
1.06113e-06
1.06114e-06
1.06114e-06
1.06113e-06
1.0513e-06
1.05045e-06
1.05038e-06
1.05043e-06
1.05128e-06
1.05133e-06
1.05132e-06
1.05057e-06
1.0501e-06
1.04877e-06
1.04877e-06
1.04877e-06
1.05025e-06
1.05058e-06
1.05131e-06
1.05057e-06
1.05007e-06
1.04877e-06
1.04877e-06
1.04877e-06
1.04877e-06
1.04877e-06
1.05023e-06
1.05058e-06
1.05131e-06
1.05129e-06
1.0501e-06
1.04877e-06
1.04877e-06
1.04877e-06
1.04877e-06
1.04877e-06
1.04877e-06
1.04877e-06
1.05025e-06
1.05066e-06
1.05135e-06
1.05045e-06
1.04877e-06
1.04877e-06
1.04877e-06
1.04877e-06
1.04877e-06
1.04877e-06
1.04877e-06
1.04877e-06
1.04877e-06
1.0507e-06
1.05148e-06
1.05038e-06
1.04877e-06
1.04877e-06
1.04877e-06
1.04877e-06
1.04877e-06
1.04877e-06
1.04877e-06
1.04877e-06
1.04877e-06
1.05068e-06
1.05149e-06
1.05043e-06
1.04877e-06
1.04877e-06
1.04877e-06
1.04877e-06
1.04877e-06
1.04877e-06
1.04877e-06
1.04877e-06
1.04877e-06
1.05069e-06
1.05149e-06
1.05128e-06
1.05025e-06
1.04877e-06
1.04877e-06
1.04877e-06
1.04877e-06
1.04877e-06
1.04877e-06
1.04877e-06
1.05046e-06
1.0507e-06
1.05148e-06
1.05133e-06
1.05058e-06
1.05023e-06
1.04877e-06
1.04877e-06
1.04877e-06
1.04877e-06
1.04877e-06
1.05043e-06
1.05062e-06
1.05076e-06
1.05131e-06
1.05058e-06
1.05025e-06
1.04877e-06
1.04877e-06
1.04877e-06
1.05046e-06
1.05062e-06
1.05073e-06
1.05146e-06
1.05131e-06
1.05066e-06
1.0507e-06
1.05068e-06
1.05069e-06
1.0507e-06
1.05076e-06
1.05146e-06
1.05135e-06
1.05148e-06
1.05149e-06
1.05149e-06
1.05148e-06
1.04164e-06
1.0408e-06
1.04073e-06
1.04078e-06
1.04163e-06
1.04167e-06
1.04167e-06
1.04092e-06
1.04045e-06
1.03911e-06
1.03911e-06
1.03911e-06
1.0406e-06
1.04092e-06
1.04165e-06
1.04092e-06
1.04041e-06
1.03911e-06
1.03911e-06
1.03911e-06
1.03911e-06
1.03911e-06
1.04057e-06
1.04092e-06
1.04166e-06
1.04164e-06
1.04045e-06
1.03911e-06
1.03911e-06
1.03911e-06
1.03911e-06
1.03911e-06
1.03911e-06
1.03911e-06
1.0406e-06
1.04101e-06
1.04169e-06
1.0408e-06
1.03911e-06
1.03911e-06
1.03911e-06
1.03911e-06
1.03911e-06
1.03911e-06
1.03911e-06
1.03911e-06
1.03911e-06
1.04104e-06
1.04183e-06
1.04073e-06
1.03911e-06
1.03911e-06
1.03911e-06
1.03911e-06
1.03911e-06
1.03911e-06
1.03911e-06
1.03911e-06
1.03911e-06
1.04103e-06
1.04183e-06
1.04078e-06
1.03911e-06
1.03911e-06
1.03911e-06
1.03911e-06
1.03911e-06
1.03911e-06
1.03911e-06
1.03911e-06
1.03911e-06
1.04103e-06
1.04183e-06
1.04163e-06
1.0406e-06
1.03911e-06
1.03911e-06
1.03911e-06
1.03911e-06
1.03911e-06
1.03911e-06
1.03911e-06
1.04081e-06
1.04105e-06
1.04182e-06
1.04167e-06
1.04092e-06
1.04057e-06
1.03911e-06
1.03911e-06
1.03911e-06
1.03911e-06
1.03911e-06
1.04077e-06
1.04096e-06
1.0411e-06
1.04165e-06
1.04092e-06
1.0406e-06
1.03911e-06
1.03911e-06
1.03911e-06
1.04081e-06
1.04096e-06
1.04108e-06
1.04181e-06
1.04166e-06
1.04101e-06
1.04104e-06
1.04103e-06
1.04103e-06
1.04105e-06
1.0411e-06
1.04181e-06
1.04169e-06
1.04183e-06
1.04183e-06
1.04183e-06
1.04182e-06
1.03199e-06
1.03114e-06
1.03107e-06
1.03112e-06
1.03197e-06
1.03202e-06
1.03201e-06
1.03126e-06
1.03079e-06
1.02946e-06
1.02946e-06
1.02946e-06
1.03094e-06
1.03127e-06
1.032e-06
1.03126e-06
1.03076e-06
1.02946e-06
1.02946e-06
1.02946e-06
1.02946e-06
1.02946e-06
1.03092e-06
1.03127e-06
1.032e-06
1.03199e-06
1.03079e-06
1.02946e-06
1.02946e-06
1.02946e-06
1.02946e-06
1.02946e-06
1.02946e-06
1.02946e-06
1.03094e-06
1.03135e-06
1.03204e-06
1.03114e-06
1.02946e-06
1.02946e-06
1.02946e-06
1.02946e-06
1.02946e-06
1.02946e-06
1.02946e-06
1.02946e-06
1.02946e-06
1.03139e-06
1.03217e-06
1.03107e-06
1.02946e-06
1.02946e-06
1.02946e-06
1.02946e-06
1.02946e-06
1.02946e-06
1.02946e-06
1.02946e-06
1.02946e-06
1.03137e-06
1.03218e-06
1.03112e-06
1.02946e-06
1.02946e-06
1.02946e-06
1.02946e-06
1.02946e-06
1.02946e-06
1.02946e-06
1.02946e-06
1.02946e-06
1.03138e-06
1.03218e-06
1.03197e-06
1.03094e-06
1.02946e-06
1.02946e-06
1.02946e-06
1.02946e-06
1.02946e-06
1.02946e-06
1.02946e-06
1.03115e-06
1.03139e-06
1.03217e-06
1.03202e-06
1.03127e-06
1.03092e-06
1.02946e-06
1.02946e-06
1.02946e-06
1.02946e-06
1.02946e-06
1.03112e-06
1.03131e-06
1.03145e-06
1.032e-06
1.03127e-06
1.03094e-06
1.02946e-06
1.02946e-06
1.02946e-06
1.03115e-06
1.03131e-06
1.03142e-06
1.03215e-06
1.032e-06
1.03135e-06
1.03139e-06
1.03137e-06
1.03138e-06
1.03139e-06
1.03145e-06
1.03215e-06
1.03204e-06
1.03217e-06
1.03218e-06
1.03218e-06
1.03217e-06
1.02233e-06
1.02149e-06
1.02142e-06
1.02147e-06
1.02232e-06
1.02237e-06
1.02236e-06
1.02161e-06
1.02114e-06
1.01981e-06
1.01981e-06
1.01981e-06
1.02129e-06
1.02162e-06
1.02235e-06
1.02161e-06
1.02111e-06
1.01981e-06
1.01981e-06
1.01981e-06
1.01981e-06
1.01981e-06
1.02127e-06
1.02161e-06
1.02235e-06
1.02233e-06
1.02114e-06
1.01981e-06
1.01981e-06
1.01981e-06
1.01981e-06
1.01981e-06
1.01981e-06
1.01981e-06
1.02129e-06
1.0217e-06
1.02239e-06
1.02149e-06
1.01981e-06
1.01981e-06
1.01981e-06
1.01981e-06
1.01981e-06
1.01981e-06
1.01981e-06
1.01981e-06
1.01981e-06
1.02173e-06
1.02252e-06
1.02142e-06
1.01981e-06
1.01981e-06
1.01981e-06
1.01981e-06
1.01981e-06
1.01981e-06
1.01981e-06
1.01981e-06
1.01981e-06
1.02172e-06
1.02253e-06
1.02147e-06
1.01981e-06
1.01981e-06
1.01981e-06
1.01981e-06
1.01981e-06
1.01981e-06
1.01981e-06
1.01981e-06
1.01981e-06
1.02173e-06
1.02253e-06
1.02232e-06
1.02129e-06
1.01981e-06
1.01981e-06
1.01981e-06
1.01981e-06
1.01981e-06
1.01981e-06
1.01981e-06
1.0215e-06
1.02174e-06
1.02252e-06
1.02237e-06
1.02162e-06
1.02127e-06
1.01981e-06
1.01981e-06
1.01981e-06
1.01981e-06
1.01981e-06
1.02146e-06
1.02166e-06
1.02179e-06
1.02235e-06
1.02161e-06
1.02129e-06
1.01981e-06
1.01981e-06
1.01981e-06
1.0215e-06
1.02166e-06
1.02177e-06
1.0225e-06
1.02235e-06
1.0217e-06
1.02173e-06
1.02172e-06
1.02173e-06
1.02174e-06
1.02179e-06
1.0225e-06
1.02239e-06
1.02252e-06
1.02253e-06
1.02253e-06
1.02252e-06
1.01268e-06
1.01183e-06
1.01177e-06
1.01182e-06
1.01267e-06
1.01271e-06
1.01271e-06
1.01195e-06
1.01149e-06
1.01015e-06
1.01015e-06
1.01015e-06
1.01164e-06
1.01196e-06
1.01269e-06
1.01195e-06
1.01145e-06
1.01015e-06
1.01015e-06
1.01015e-06
1.01015e-06
1.01015e-06
1.01161e-06
1.01196e-06
1.0127e-06
1.01268e-06
1.01149e-06
1.01015e-06
1.01015e-06
1.01015e-06
1.01015e-06
1.01015e-06
1.01015e-06
1.01015e-06
1.01164e-06
1.01204e-06
1.01273e-06
1.01183e-06
1.01015e-06
1.01015e-06
1.01015e-06
1.01015e-06
1.01015e-06
1.01015e-06
1.01015e-06
1.01015e-06
1.01015e-06
1.01208e-06
1.01286e-06
1.01177e-06
1.01015e-06
1.01015e-06
1.01015e-06
1.01015e-06
1.01015e-06
1.01015e-06
1.01015e-06
1.01015e-06
1.01015e-06
1.01207e-06
1.01287e-06
1.01182e-06
1.01015e-06
1.01015e-06
1.01015e-06
1.01015e-06
1.01015e-06
1.01015e-06
1.01015e-06
1.01015e-06
1.01015e-06
1.01207e-06
1.01287e-06
1.01267e-06
1.01164e-06
1.01015e-06
1.01015e-06
1.01015e-06
1.01015e-06
1.01015e-06
1.01015e-06
1.01015e-06
1.01184e-06
1.01208e-06
1.01286e-06
1.01271e-06
1.01196e-06
1.01161e-06
1.01015e-06
1.01015e-06
1.01015e-06
1.01015e-06
1.01015e-06
1.01181e-06
1.012e-06
1.01214e-06
1.01269e-06
1.01196e-06
1.01164e-06
1.01015e-06
1.01015e-06
1.01015e-06
1.01184e-06
1.012e-06
1.01212e-06
1.01285e-06
1.0127e-06
1.01204e-06
1.01208e-06
1.01207e-06
1.01207e-06
1.01208e-06
1.01214e-06
1.01285e-06
1.01273e-06
1.01286e-06
1.01287e-06
1.01287e-06
1.01286e-06
1.00303e-06
1.00218e-06
1.00211e-06
1.00216e-06
1.00301e-06
1.00306e-06
1.00305e-06
1.0023e-06
1.00183e-06
1.0005e-06
1.0005e-06
1.0005e-06
1.00198e-06
1.00231e-06
1.00304e-06
1.0023e-06
1.0018e-06
1.0005e-06
1.0005e-06
1.0005e-06
1.0005e-06
1.0005e-06
1.00196e-06
1.00231e-06
1.00304e-06
1.00303e-06
1.00183e-06
1.0005e-06
1.0005e-06
1.0005e-06
1.0005e-06
1.0005e-06
1.0005e-06
1.0005e-06
1.00198e-06
1.00239e-06
1.00308e-06
1.00218e-06
1.0005e-06
1.0005e-06
1.0005e-06
1.0005e-06
1.0005e-06
1.0005e-06
1.0005e-06
1.0005e-06
1.0005e-06
1.00243e-06
1.00321e-06
1.00211e-06
1.0005e-06
1.0005e-06
1.0005e-06
1.0005e-06
1.0005e-06
1.0005e-06
1.0005e-06
1.0005e-06
1.0005e-06
1.00241e-06
1.00322e-06
1.00216e-06
1.0005e-06
1.0005e-06
1.0005e-06
1.0005e-06
1.0005e-06
1.0005e-06
1.0005e-06
1.0005e-06
1.0005e-06
1.00242e-06
1.00322e-06
1.00301e-06
1.00198e-06
1.0005e-06
1.0005e-06
1.0005e-06
1.0005e-06
1.0005e-06
1.0005e-06
1.0005e-06
1.00219e-06
1.00243e-06
1.00321e-06
1.00306e-06
1.00231e-06
1.00196e-06
1.0005e-06
1.0005e-06
1.0005e-06
1.0005e-06
1.0005e-06
1.00216e-06
1.00235e-06
1.00249e-06
1.00304e-06
1.00231e-06
1.00198e-06
1.0005e-06
1.0005e-06
1.0005e-06
1.00219e-06
1.00235e-06
1.00246e-06
1.00319e-06
1.00304e-06
1.00239e-06
1.00243e-06
1.00241e-06
1.00242e-06
1.00243e-06
1.00249e-06
1.00319e-06
1.00308e-06
1.00321e-06
1.00322e-06
1.00322e-06
1.00321e-06
9.93373e-07
9.92527e-07
9.92459e-07
9.92508e-07
9.9336e-07
9.93405e-07
9.934e-07
9.92647e-07
9.9218e-07
9.90844e-07
9.90844e-07
9.90844e-07
9.92329e-07
9.92656e-07
9.93384e-07
9.92647e-07
9.92145e-07
9.90844e-07
9.90845e-07
9.90845e-07
9.90845e-07
9.90844e-07
9.92305e-07
9.92653e-07
9.93388e-07
9.93372e-07
9.9218e-07
9.90844e-07
9.90845e-07
9.90844e-07
9.90845e-07
9.90844e-07
9.90845e-07
9.90844e-07
9.9233e-07
9.92738e-07
9.93425e-07
9.92527e-07
9.90844e-07
9.90845e-07
9.90844e-07
9.90845e-07
9.90844e-07
9.90845e-07
9.90844e-07
9.90845e-07
9.90844e-07
9.92774e-07
9.93557e-07
9.92459e-07
9.90845e-07
9.90845e-07
9.90845e-07
9.90845e-07
9.90845e-07
9.90844e-07
9.90845e-07
9.90845e-07
9.90845e-07
9.92759e-07
9.93564e-07
9.92508e-07
9.90844e-07
9.90845e-07
9.90844e-07
9.90845e-07
9.90845e-07
9.90845e-07
9.90844e-07
9.90845e-07
9.90844e-07
9.92765e-07
9.93565e-07
9.9336e-07
9.92328e-07
9.90844e-07
9.90845e-07
9.90844e-07
9.90845e-07
9.90844e-07
9.90845e-07
9.90844e-07
9.92537e-07
9.92778e-07
9.93555e-07
9.93405e-07
9.92656e-07
9.92305e-07
9.90844e-07
9.90845e-07
9.90845e-07
9.90846e-07
9.90844e-07
9.92503e-07
9.92694e-07
9.92834e-07
9.93384e-07
9.92653e-07
9.9233e-07
9.90844e-07
9.90845e-07
9.90844e-07
9.92537e-07
9.92694e-07
9.92809e-07
9.93539e-07
9.93388e-07
9.92738e-07
9.92774e-07
9.92759e-07
9.92765e-07
9.92778e-07
9.92834e-07
9.93539e-07
9.93425e-07
9.93557e-07
9.93564e-07
9.93565e-07
9.93555e-07
9.83719e-07
9.82873e-07
9.82806e-07
9.82855e-07
9.83706e-07
9.83751e-07
9.83746e-07
9.82993e-07
9.82526e-07
9.8119e-07
9.81191e-07
9.8119e-07
9.82675e-07
9.83002e-07
9.8373e-07
9.82993e-07
9.82492e-07
9.81191e-07
9.81192e-07
9.81191e-07
9.81192e-07
9.81191e-07
9.82652e-07
9.82999e-07
9.83734e-07
9.83719e-07
9.82526e-07
9.81191e-07
9.81191e-07
9.81191e-07
9.81191e-07
9.81191e-07
9.81191e-07
9.81191e-07
9.82676e-07
9.83084e-07
9.83771e-07
9.82873e-07
9.8119e-07
9.81192e-07
9.81191e-07
9.81192e-07
9.81191e-07
9.81192e-07
9.81191e-07
9.81192e-07
9.8119e-07
9.8312e-07
9.83903e-07
9.82806e-07
9.81191e-07
9.81191e-07
9.81191e-07
9.81191e-07
9.81191e-07
9.81191e-07
9.81191e-07
9.81191e-07
9.81191e-07
9.83105e-07
9.83911e-07
9.82855e-07
9.8119e-07
9.81192e-07
9.81191e-07
9.81192e-07
9.81191e-07
9.81192e-07
9.81191e-07
9.81192e-07
9.8119e-07
9.83111e-07
9.83911e-07
9.83706e-07
9.82675e-07
9.81191e-07
9.81191e-07
9.81191e-07
9.81191e-07
9.81191e-07
9.81191e-07
9.81191e-07
9.82883e-07
9.83124e-07
9.83901e-07
9.83751e-07
9.83002e-07
9.82652e-07
9.81191e-07
9.81192e-07
9.81191e-07
9.81192e-07
9.81191e-07
9.82849e-07
9.83041e-07
9.8318e-07
9.8373e-07
9.82999e-07
9.82676e-07
9.8119e-07
9.81191e-07
9.8119e-07
9.82883e-07
9.83041e-07
9.83155e-07
9.83886e-07
9.83734e-07
9.83084e-07
9.8312e-07
9.83105e-07
9.83111e-07
9.83124e-07
9.8318e-07
9.83886e-07
9.83771e-07
9.83903e-07
9.83911e-07
9.83912e-07
9.83902e-07
9.74065e-07
9.73219e-07
9.73152e-07
9.73201e-07
9.74053e-07
9.74098e-07
9.74092e-07
9.73339e-07
9.72873e-07
9.71537e-07
9.71537e-07
9.71537e-07
9.73021e-07
9.73348e-07
9.74077e-07
9.73339e-07
9.72838e-07
9.71537e-07
9.71538e-07
9.71537e-07
9.71538e-07
9.71537e-07
9.72998e-07
9.73346e-07
9.7408e-07
9.74065e-07
9.72873e-07
9.71537e-07
9.71537e-07
9.71537e-07
9.71537e-07
9.71537e-07
9.71537e-07
9.71537e-07
9.73022e-07
9.7343e-07
9.74118e-07
9.73219e-07
9.71537e-07
9.71538e-07
9.71537e-07
9.71538e-07
9.71537e-07
9.71538e-07
9.71537e-07
9.71538e-07
9.71537e-07
9.73466e-07
9.74249e-07
9.73152e-07
9.71537e-07
9.71537e-07
9.71537e-07
9.71537e-07
9.71537e-07
9.71537e-07
9.71537e-07
9.71537e-07
9.71537e-07
9.73451e-07
9.74257e-07
9.73201e-07
9.71537e-07
9.71538e-07
9.71537e-07
9.71538e-07
9.71537e-07
9.71538e-07
9.71537e-07
9.71538e-07
9.71537e-07
9.73458e-07
9.74258e-07
9.74053e-07
9.73021e-07
9.71537e-07
9.71537e-07
9.71537e-07
9.71537e-07
9.71537e-07
9.71537e-07
9.71537e-07
9.73229e-07
9.7347e-07
9.74248e-07
9.74098e-07
9.73348e-07
9.72998e-07
9.71537e-07
9.71538e-07
9.71537e-07
9.71538e-07
9.71537e-07
9.73196e-07
9.73387e-07
9.73526e-07
9.74077e-07
9.73346e-07
9.73022e-07
9.71537e-07
9.71537e-07
9.71537e-07
9.73229e-07
9.73387e-07
9.73502e-07
9.74232e-07
9.7408e-07
9.7343e-07
9.73466e-07
9.73451e-07
9.73458e-07
9.7347e-07
9.73526e-07
9.74232e-07
9.74117e-07
9.74249e-07
9.74257e-07
9.74258e-07
9.74248e-07
9.64412e-07
9.63566e-07
9.63498e-07
9.63547e-07
9.64399e-07
9.64444e-07
9.64439e-07
9.63686e-07
9.63219e-07
9.61883e-07
9.61883e-07
9.61883e-07
9.63367e-07
9.63694e-07
9.64423e-07
9.63686e-07
9.63184e-07
9.61883e-07
9.61884e-07
9.61883e-07
9.61884e-07
9.61883e-07
9.63344e-07
9.63692e-07
9.64427e-07
9.64411e-07
9.63219e-07
9.61883e-07
9.61884e-07
9.61883e-07
9.61883e-07
9.61883e-07
9.61884e-07
9.61883e-07
9.63369e-07
9.63776e-07
9.64464e-07
9.63566e-07
9.61883e-07
9.61884e-07
9.61883e-07
9.61884e-07
9.61883e-07
9.61884e-07
9.61883e-07
9.61884e-07
9.61883e-07
9.63813e-07
9.64596e-07
9.63498e-07
9.61883e-07
9.61883e-07
9.61883e-07
9.61883e-07
9.61883e-07
9.61883e-07
9.61883e-07
9.61883e-07
9.61883e-07
9.63798e-07
9.64603e-07
9.63547e-07
9.61883e-07
9.61884e-07
9.61883e-07
9.61884e-07
9.61883e-07
9.61884e-07
9.61883e-07
9.61884e-07
9.61883e-07
9.63804e-07
9.64604e-07
9.64399e-07
9.63367e-07
9.61883e-07
9.61884e-07
9.61883e-07
9.61883e-07
9.61883e-07
9.61884e-07
9.61883e-07
9.63576e-07
9.63816e-07
9.64594e-07
9.64444e-07
9.63694e-07
9.63344e-07
9.61883e-07
9.61884e-07
9.61883e-07
9.61884e-07
9.61883e-07
9.63542e-07
9.63733e-07
9.63873e-07
9.64423e-07
9.63692e-07
9.63369e-07
9.61883e-07
9.61883e-07
9.61883e-07
9.63576e-07
9.63733e-07
9.63848e-07
9.64578e-07
9.64427e-07
9.63776e-07
9.63813e-07
9.63798e-07
9.63804e-07
9.63816e-07
9.63873e-07
9.64578e-07
9.64464e-07
9.64596e-07
9.64603e-07
9.64604e-07
9.64594e-07
9.54758e-07
9.53912e-07
9.53844e-07
9.53893e-07
9.54745e-07
9.5479e-07
9.54785e-07
9.54032e-07
9.53565e-07
9.52229e-07
9.52229e-07
9.52229e-07
9.53713e-07
9.54041e-07
9.54769e-07
9.54032e-07
9.5353e-07
9.52229e-07
9.5223e-07
9.5223e-07
9.5223e-07
9.52229e-07
9.5369e-07
9.54038e-07
9.54773e-07
9.54757e-07
9.53565e-07
9.52229e-07
9.5223e-07
9.52229e-07
9.5223e-07
9.52229e-07
9.5223e-07
9.52229e-07
9.53715e-07
9.54123e-07
9.5481e-07
9.53912e-07
9.52229e-07
9.5223e-07
9.52229e-07
9.5223e-07
9.52229e-07
9.5223e-07
9.52229e-07
9.5223e-07
9.52229e-07
9.54159e-07
9.54942e-07
9.53844e-07
9.52229e-07
9.5223e-07
9.5223e-07
9.52229e-07
9.5223e-07
9.52229e-07
9.5223e-07
9.5223e-07
9.52229e-07
9.54144e-07
9.54949e-07
9.53893e-07
9.52229e-07
9.5223e-07
9.52229e-07
9.5223e-07
9.52229e-07
9.5223e-07
9.52229e-07
9.5223e-07
9.52229e-07
9.5415e-07