/*--------------------------------*- C++ -*----------------------------------*\
| =========                 |                                                 |
| \\      /  F ield         | OpenFOAM: The Open Source CFD Toolbox           |
|  \\    /   O peration     | Version:  v2012                                 |
|   \\  /    A nd           | Website:  www.openfoam.com                      |
|    \\/     M anipulation  |                                                 |
\*---------------------------------------------------------------------------*/
FoamFile
{
    version     2.0;
    format      ascii;
    class       volScalarField;
    location    "15";
    object      p;
}
// * * * * * * * * * * * * * * * * * * * * * * * * * * * * * * * * * * * * * //

dimensions      [0 2 -2 0 0 0 0];


internalField   nonuniform List<scalar> 
292667
(
1.72655e-06
1.71313e-06
1.71193e-06
1.71205e-06
1.71378e-06
1.72759e-06
1.7134e-06
1.70916e-06
1.70676e-06
1.70579e-06
1.70592e-06
1.70721e-06
1.71003e-06
1.71473e-06
1.7134e-06
1.70795e-06
1.70471e-06
1.70294e-06
1.7022e-06
1.7023e-06
1.70327e-06
1.70535e-06
1.70907e-06
1.71513e-06
1.72655e-06
1.70916e-06
1.70471e-06
1.70213e-06
1.70069e-06
1.70008e-06
1.70016e-06
1.70097e-06
1.70265e-06
1.70559e-06
1.7107e-06
1.72733e-06
1.71313e-06
1.70676e-06
1.70294e-06
1.70069e-06
1.69942e-06
1.69887e-06
1.69894e-06
1.69966e-06
1.70115e-06
1.70371e-06
1.7081e-06
1.71887e-06
1.71193e-06
1.70579e-06
1.7022e-06
1.70008e-06
1.69887e-06
1.69834e-06
1.69841e-06
1.6991e-06
1.70051e-06
1.70292e-06
1.70705e-06
1.71622e-06
1.71205e-06
1.70592e-06
1.7023e-06
1.70016e-06
1.69894e-06
1.69841e-06
1.69849e-06
1.69918e-06
1.7006e-06
1.70303e-06
1.70719e-06
1.71652e-06
1.71378e-06
1.70721e-06
1.70327e-06
1.70097e-06
1.69966e-06
1.6991e-06
1.69918e-06
1.69991e-06
1.70143e-06
1.70406e-06
1.70859e-06
1.71935e-06
1.72759e-06
1.71003e-06
1.70535e-06
1.70265e-06
1.70115e-06
1.70051e-06
1.7006e-06
1.70143e-06
1.70319e-06
1.70629e-06
1.7116e-06
1.72769e-06
1.71473e-06
1.70907e-06
1.70559e-06
1.70371e-06
1.70292e-06
1.70303e-06
1.70406e-06
1.70629e-06
1.71027e-06
1.71975e-06
1.71513e-06
1.7107e-06
1.7081e-06
1.70705e-06
1.70719e-06
1.70859e-06
1.7116e-06
1.71975e-06
1.72733e-06
1.71887e-06
1.71622e-06
1.71652e-06
1.71935e-06
1.72769e-06
1.68806e-06
1.68648e-06
1.68643e-06
1.68647e-06
1.68783e-06
1.68787e-06
1.68814e-06
1.68684e-06
1.68631e-06
1.68401e-06
1.68396e-06
1.68401e-06
1.68635e-06
1.68668e-06
1.68798e-06
1.68684e-06
1.68631e-06
1.68414e-06
1.68397e-06
1.68397e-06
1.68396e-06
1.68414e-06
1.68627e-06
1.68667e-06
1.68794e-06
1.68806e-06
1.68632e-06
1.68414e-06
1.68401e-06
1.684e-06
1.68398e-06
1.684e-06
1.68401e-06
1.68414e-06
1.68626e-06
1.68673e-06
1.68814e-06
1.68648e-06
1.68401e-06
1.68397e-06
1.684e-06
1.68397e-06
1.68396e-06
1.68397e-06
1.684e-06
1.68396e-06
1.68401e-06
1.68666e-06
1.68799e-06
1.68643e-06
1.68396e-06
1.68397e-06
1.68398e-06
1.68396e-06
1.68394e-06
1.68396e-06
1.68398e-06
1.68397e-06
1.68396e-06
1.68656e-06
1.68768e-06
1.68647e-06
1.68401e-06
1.68396e-06
1.684e-06
1.68397e-06
1.68396e-06
1.68397e-06
1.684e-06
1.68396e-06
1.684e-06
1.68661e-06
1.68777e-06
1.68783e-06
1.68635e-06
1.68414e-06
1.68401e-06
1.684e-06
1.68398e-06
1.684e-06
1.68401e-06
1.68414e-06
1.68621e-06
1.68672e-06
1.68804e-06
1.68787e-06
1.68668e-06
1.68627e-06
1.68414e-06
1.68397e-06
1.68397e-06
1.68396e-06
1.68414e-06
1.68618e-06
1.68658e-06
1.6868e-06
1.68798e-06
1.68667e-06
1.68626e-06
1.68401e-06
1.68396e-06
1.68401e-06
1.68621e-06
1.68658e-06
1.68689e-06
1.68815e-06
1.68795e-06
1.68673e-06
1.68666e-06
1.68656e-06
1.68661e-06
1.68672e-06
1.6868e-06
1.68815e-06
1.68814e-06
1.68799e-06
1.68768e-06
1.68777e-06
1.68804e-06
1.67358e-06
1.67212e-06
1.67206e-06
1.67208e-06
1.67343e-06
1.67359e-06
1.67367e-06
1.67234e-06
1.67179e-06
1.66947e-06
1.66946e-06
1.66947e-06
1.67185e-06
1.67223e-06
1.67349e-06
1.67234e-06
1.6718e-06
1.66953e-06
1.6695e-06
1.66953e-06
1.6695e-06
1.66953e-06
1.6718e-06
1.6722e-06
1.6735e-06
1.67358e-06
1.67179e-06
1.66953e-06
1.66953e-06
1.66959e-06
1.6696e-06
1.66959e-06
1.66953e-06
1.66953e-06
1.67178e-06
1.67229e-06
1.67364e-06
1.67212e-06
1.66947e-06
1.6695e-06
1.66959e-06
1.66962e-06
1.66963e-06
1.66962e-06
1.66959e-06
1.6695e-06
1.66947e-06
1.67221e-06
1.67366e-06
1.67206e-06
1.66946e-06
1.66953e-06
1.6696e-06
1.66963e-06
1.66964e-06
1.66963e-06
1.6696e-06
1.66953e-06
1.66946e-06
1.67215e-06
1.6736e-06
1.67208e-06
1.66947e-06
1.6695e-06
1.66959e-06
1.66962e-06
1.66963e-06
1.66962e-06
1.66959e-06
1.6695e-06
1.66946e-06
1.67218e-06
1.6736e-06
1.67343e-06
1.67185e-06
1.66953e-06
1.66953e-06
1.66959e-06
1.6696e-06
1.66959e-06
1.66953e-06
1.66953e-06
1.67179e-06
1.67226e-06
1.6737e-06
1.67359e-06
1.67223e-06
1.6718e-06
1.66953e-06
1.6695e-06
1.66953e-06
1.6695e-06
1.66953e-06
1.67176e-06
1.67211e-06
1.6724e-06
1.67349e-06
1.6722e-06
1.67178e-06
1.66947e-06
1.66946e-06
1.66946e-06
1.67179e-06
1.67211e-06
1.67238e-06
1.6737e-06
1.6735e-06
1.67229e-06
1.67221e-06
1.67215e-06
1.67218e-06
1.67227e-06
1.67241e-06
1.67371e-06
1.67364e-06
1.67366e-06
1.6736e-06
1.6736e-06
1.6737e-06
1.65931e-06
1.65782e-06
1.65772e-06
1.65777e-06
1.65915e-06
1.65932e-06
1.6594e-06
1.65804e-06
1.65743e-06
1.65508e-06
1.65508e-06
1.65508e-06
1.65749e-06
1.65794e-06
1.65922e-06
1.65804e-06
1.65742e-06
1.65513e-06
1.65512e-06
1.65515e-06
1.65512e-06
1.65513e-06
1.65745e-06
1.65793e-06
1.65923e-06
1.65931e-06
1.65743e-06
1.65513e-06
1.65514e-06
1.65519e-06
1.6552e-06
1.65519e-06
1.65514e-06
1.65513e-06
1.65745e-06
1.65802e-06
1.65938e-06
1.65782e-06
1.65508e-06
1.65512e-06
1.65519e-06
1.65522e-06
1.65523e-06
1.65522e-06
1.65519e-06
1.65512e-06
1.65508e-06
1.65791e-06
1.65938e-06
1.65773e-06
1.65508e-06
1.65515e-06
1.6552e-06
1.65523e-06
1.65525e-06
1.65523e-06
1.6552e-06
1.65515e-06
1.65508e-06
1.65784e-06
1.65931e-06
1.65777e-06
1.65508e-06
1.65512e-06
1.65519e-06
1.65522e-06
1.65523e-06
1.65522e-06
1.65519e-06
1.65512e-06
1.65508e-06
1.65787e-06
1.65931e-06
1.65915e-06
1.65749e-06
1.65513e-06
1.65514e-06
1.65519e-06
1.6552e-06
1.65519e-06
1.65514e-06
1.65513e-06
1.65749e-06
1.65798e-06
1.65942e-06
1.65932e-06
1.65794e-06
1.65745e-06
1.65513e-06
1.65512e-06
1.65515e-06
1.65512e-06
1.65513e-06
1.65746e-06
1.65782e-06
1.65813e-06
1.65922e-06
1.65793e-06
1.65745e-06
1.65508e-06
1.65508e-06
1.65508e-06
1.65749e-06
1.65782e-06
1.6581e-06
1.65944e-06
1.65923e-06
1.65802e-06
1.65791e-06
1.65784e-06
1.65787e-06
1.65798e-06
1.65813e-06
1.65944e-06
1.65938e-06
1.65938e-06
1.65931e-06
1.65931e-06
1.65942e-06
1.64502e-06
1.64352e-06
1.64343e-06
1.64347e-06
1.64486e-06
1.64503e-06
1.64511e-06
1.64374e-06
1.64311e-06
1.64076e-06
1.64076e-06
1.64076e-06
1.64317e-06
1.64365e-06
1.64493e-06
1.64374e-06
1.64308e-06
1.64078e-06
1.64078e-06
1.6408e-06
1.64078e-06
1.64078e-06
1.64312e-06
1.64363e-06
1.64494e-06
1.64502e-06
1.64311e-06
1.64078e-06
1.64079e-06
1.64082e-06
1.64083e-06
1.64082e-06
1.64079e-06
1.64078e-06
1.64314e-06
1.64373e-06
1.64509e-06
1.64352e-06
1.64076e-06
1.64078e-06
1.64082e-06
1.64084e-06
1.64085e-06
1.64084e-06
1.64082e-06
1.64078e-06
1.64076e-06
1.64362e-06
1.64509e-06
1.64343e-06
1.64076e-06
1.6408e-06
1.64083e-06
1.64085e-06
1.64086e-06
1.64085e-06
1.64083e-06
1.6408e-06
1.64076e-06
1.64354e-06
1.64502e-06
1.64347e-06
1.64076e-06
1.64078e-06
1.64082e-06
1.64085e-06
1.64085e-06
1.64084e-06
1.64082e-06
1.64078e-06
1.64076e-06
1.64357e-06
1.64502e-06
1.64486e-06
1.64317e-06
1.64078e-06
1.64079e-06
1.64082e-06
1.64083e-06
1.64082e-06
1.64079e-06
1.64078e-06
1.64319e-06
1.64369e-06
1.64513e-06
1.64503e-06
1.64365e-06
1.64312e-06
1.64078e-06
1.64078e-06
1.6408e-06
1.64078e-06
1.64078e-06
1.64315e-06
1.64353e-06
1.64384e-06
1.64493e-06
1.64363e-06
1.64314e-06
1.64076e-06
1.64076e-06
1.64076e-06
1.64319e-06
1.64353e-06
1.6438e-06
1.64515e-06
1.64494e-06
1.64373e-06
1.64362e-06
1.64354e-06
1.64358e-06
1.64369e-06
1.64384e-06
1.64515e-06
1.64509e-06
1.64509e-06
1.64502e-06
1.64502e-06
1.64513e-06
1.63072e-06
1.62922e-06
1.62913e-06
1.62917e-06
1.63056e-06
1.63073e-06
1.63082e-06
1.62944e-06
1.6288e-06
1.62644e-06
1.62644e-06
1.62644e-06
1.62886e-06
1.62935e-06
1.63063e-06
1.62943e-06
1.62877e-06
1.62645e-06
1.62646e-06
1.62647e-06
1.62646e-06
1.62645e-06
1.62881e-06
1.62933e-06
1.63064e-06
1.63072e-06
1.6288e-06
1.62645e-06
1.62647e-06
1.62648e-06
1.62649e-06
1.62648e-06
1.62647e-06
1.62645e-06
1.62883e-06
1.62943e-06
1.63079e-06
1.62922e-06
1.62644e-06
1.62646e-06
1.62648e-06
1.6265e-06
1.6265e-06
1.6265e-06
1.62648e-06
1.62646e-06
1.62644e-06
1.62932e-06
1.6308e-06
1.62913e-06
1.62644e-06
1.62647e-06
1.62649e-06
1.6265e-06
1.62651e-06
1.6265e-06
1.62649e-06
1.62647e-06
1.62644e-06
1.62924e-06
1.63072e-06
1.62917e-06
1.62644e-06
1.62646e-06
1.62648e-06
1.6265e-06
1.6265e-06
1.6265e-06
1.62648e-06
1.62646e-06
1.62644e-06
1.62928e-06
1.63073e-06
1.63056e-06
1.62886e-06
1.62645e-06
1.62647e-06
1.62648e-06
1.62649e-06
1.62648e-06
1.62647e-06
1.62645e-06
1.62889e-06
1.62939e-06
1.63084e-06
1.63073e-06
1.62935e-06
1.62881e-06
1.62645e-06
1.62646e-06
1.62647e-06
1.62646e-06
1.62645e-06
1.62885e-06
1.62923e-06
1.62954e-06
1.63063e-06
1.62933e-06
1.62883e-06
1.62644e-06
1.62644e-06
1.62644e-06
1.62889e-06
1.62923e-06
1.62951e-06
1.63085e-06
1.63064e-06
1.62943e-06
1.62932e-06
1.62924e-06
1.62928e-06
1.62939e-06
1.62954e-06
1.63085e-06
1.63079e-06
1.6308e-06
1.63072e-06
1.63073e-06
1.63084e-06
1.61643e-06
1.61492e-06
1.61483e-06
1.61487e-06
1.61626e-06
1.61643e-06
1.61652e-06
1.61514e-06
1.6145e-06
1.61214e-06
1.61214e-06
1.61214e-06
1.61456e-06
1.61505e-06
1.61633e-06
1.61513e-06
1.61447e-06
1.61214e-06
1.61215e-06
1.61215e-06
1.61215e-06
1.61214e-06
1.61451e-06
1.61503e-06
1.61634e-06
1.61643e-06
1.6145e-06
1.61214e-06
1.61215e-06
1.61216e-06
1.61216e-06
1.61216e-06
1.61215e-06
1.61214e-06
1.61453e-06
1.61513e-06
1.61649e-06
1.61492e-06
1.61214e-06
1.61215e-06
1.61216e-06
1.61217e-06
1.61217e-06
1.61217e-06
1.61216e-06
1.61215e-06
1.61214e-06
1.61502e-06
1.6165e-06
1.61483e-06
1.61214e-06
1.61215e-06
1.61216e-06
1.61217e-06
1.61218e-06
1.61217e-06
1.61216e-06
1.61215e-06
1.61214e-06
1.61494e-06
1.61642e-06
1.61487e-06
1.61214e-06
1.61215e-06
1.61216e-06
1.61217e-06
1.61217e-06
1.61217e-06
1.61216e-06
1.61215e-06
1.61214e-06
1.61498e-06
1.61643e-06
1.61626e-06
1.61456e-06
1.61214e-06
1.61215e-06
1.61216e-06
1.61216e-06
1.61216e-06
1.61215e-06
1.61214e-06
1.61459e-06
1.6151e-06
1.61654e-06
1.61643e-06
1.61505e-06
1.61451e-06
1.61214e-06
1.61215e-06
1.61215e-06
1.61215e-06
1.61214e-06
1.61455e-06
1.61493e-06
1.61524e-06
1.61633e-06
1.61503e-06
1.61453e-06
1.61214e-06
1.61214e-06
1.61214e-06
1.61459e-06
1.61493e-06
1.61521e-06
1.61656e-06
1.61634e-06
1.61513e-06
1.61502e-06
1.61494e-06
1.61498e-06
1.6151e-06
1.61524e-06
1.61656e-06
1.61649e-06
1.6165e-06
1.61642e-06
1.61643e-06
1.61654e-06
1.60213e-06
1.60062e-06
1.60053e-06
1.60057e-06
1.60197e-06
1.60214e-06
1.60222e-06
1.60084e-06
1.6002e-06
1.59784e-06
1.59784e-06
1.59784e-06
1.60026e-06
1.60075e-06
1.60203e-06
1.60084e-06
1.60017e-06
1.59784e-06
1.59784e-06
1.59784e-06
1.59784e-06
1.59784e-06
1.60021e-06
1.60073e-06
1.60204e-06
1.60213e-06
1.6002e-06
1.59784e-06
1.59784e-06
1.59785e-06
1.59785e-06
1.59785e-06
1.59784e-06
1.59784e-06
1.60023e-06
1.60083e-06
1.6022e-06
1.60062e-06
1.59784e-06
1.59784e-06
1.59785e-06
1.59785e-06
1.59785e-06
1.59785e-06
1.59785e-06
1.59784e-06
1.59784e-06
1.60072e-06
1.6022e-06
1.60053e-06
1.59784e-06
1.59784e-06
1.59785e-06
1.59785e-06
1.59786e-06
1.59785e-06
1.59785e-06
1.59784e-06
1.59784e-06
1.60064e-06
1.60213e-06
1.60057e-06
1.59784e-06
1.59784e-06
1.59785e-06
1.59785e-06
1.59785e-06
1.59785e-06
1.59785e-06
1.59784e-06
1.59784e-06
1.60068e-06
1.60213e-06
1.60197e-06
1.60026e-06
1.59784e-06
1.59784e-06
1.59785e-06
1.59785e-06
1.59785e-06
1.59784e-06
1.59784e-06
1.60029e-06
1.6008e-06
1.60224e-06
1.60214e-06
1.60075e-06
1.60021e-06
1.59784e-06
1.59784e-06
1.59784e-06
1.59784e-06
1.59784e-06
1.60024e-06
1.60063e-06
1.60094e-06
1.60203e-06
1.60073e-06
1.60023e-06
1.59784e-06
1.59784e-06
1.59784e-06
1.60029e-06
1.60063e-06
1.60091e-06
1.60226e-06
1.60204e-06
1.60083e-06
1.60072e-06
1.60064e-06
1.60068e-06
1.6008e-06
1.60094e-06
1.60226e-06
1.6022e-06
1.6022e-06
1.60213e-06
1.60213e-06
1.60224e-06
1.58783e-06
1.58632e-06
1.58623e-06
1.58627e-06
1.58767e-06
1.58784e-06
1.58792e-06
1.58654e-06
1.5859e-06
1.58353e-06
1.58353e-06
1.58353e-06
1.58596e-06
1.58645e-06
1.58773e-06
1.58654e-06
1.58587e-06
1.58354e-06
1.58354e-06
1.58354e-06
1.58354e-06
1.58354e-06
1.58591e-06
1.58643e-06
1.58774e-06
1.58783e-06
1.5859e-06
1.58354e-06
1.58354e-06
1.58354e-06
1.58354e-06
1.58354e-06
1.58354e-06
1.58354e-06
1.58593e-06
1.58653e-06
1.5879e-06
1.58632e-06
1.58353e-06
1.58354e-06
1.58354e-06
1.58354e-06
1.58354e-06
1.58354e-06
1.58354e-06
1.58354e-06
1.58353e-06
1.58642e-06
1.5879e-06
1.58623e-06
1.58353e-06
1.58354e-06
1.58354e-06
1.58355e-06
1.58355e-06
1.58354e-06
1.58354e-06
1.58354e-06
1.58353e-06
1.58634e-06
1.58783e-06
1.58627e-06
1.58353e-06
1.58354e-06
1.58354e-06
1.58354e-06
1.58355e-06
1.58354e-06
1.58354e-06
1.58354e-06
1.58353e-06
1.58638e-06
1.58783e-06
1.58767e-06
1.58596e-06
1.58354e-06
1.58354e-06
1.58354e-06
1.58354e-06
1.58354e-06
1.58354e-06
1.58354e-06
1.58599e-06
1.5865e-06
1.58794e-06
1.58784e-06
1.58645e-06
1.58591e-06
1.58354e-06
1.58354e-06
1.58354e-06
1.58354e-06
1.58354e-06
1.58595e-06
1.58633e-06
1.58664e-06
1.58773e-06
1.58643e-06
1.58593e-06
1.58353e-06
1.58353e-06
1.58353e-06
1.58599e-06
1.58633e-06
1.58661e-06
1.58796e-06
1.58774e-06
1.58653e-06
1.58642e-06
1.58634e-06
1.58638e-06
1.5865e-06
1.58665e-06
1.58796e-06
1.5879e-06
1.5879e-06
1.58783e-06
1.58783e-06
1.58794e-06
1.57353e-06
1.57202e-06
1.57193e-06
1.57197e-06
1.57337e-06
1.57354e-06
1.57362e-06
1.57224e-06
1.5716e-06
1.56923e-06
1.56923e-06
1.56923e-06
1.57166e-06
1.57215e-06
1.57343e-06
1.57224e-06
1.57157e-06
1.56923e-06
1.56924e-06
1.56924e-06
1.56924e-06
1.56923e-06
1.57161e-06
1.57213e-06
1.57344e-06
1.57353e-06
1.5716e-06
1.56923e-06
1.56924e-06
1.56924e-06
1.56924e-06
1.56924e-06
1.56924e-06
1.56923e-06
1.57163e-06
1.57223e-06
1.5736e-06
1.57202e-06
1.56923e-06
1.56924e-06
1.56924e-06
1.56924e-06
1.56924e-06
1.56924e-06
1.56924e-06
1.56924e-06
1.56923e-06
1.57212e-06
1.5736e-06
1.57193e-06
1.56923e-06
1.56924e-06
1.56924e-06
1.56924e-06
1.56924e-06
1.56924e-06
1.56924e-06
1.56924e-06
1.56923e-06
1.57204e-06
1.57353e-06
1.57197e-06
1.56923e-06
1.56924e-06
1.56924e-06
1.56924e-06
1.56924e-06
1.56924e-06
1.56924e-06
1.56924e-06
1.56923e-06
1.57208e-06
1.57353e-06
1.57337e-06
1.57166e-06
1.56923e-06
1.56924e-06
1.56924e-06
1.56924e-06
1.56924e-06
1.56924e-06
1.56924e-06
1.57169e-06
1.5722e-06
1.57364e-06
1.57354e-06
1.57215e-06
1.57161e-06
1.56923e-06
1.56924e-06
1.56924e-06
1.56924e-06
1.56923e-06
1.57164e-06
1.57203e-06
1.57235e-06
1.57343e-06
1.57213e-06
1.57163e-06
1.56923e-06
1.56923e-06
1.56923e-06
1.57169e-06
1.57204e-06
1.57231e-06
1.57366e-06
1.57344e-06
1.57223e-06
1.57212e-06
1.57204e-06
1.57208e-06
1.5722e-06
1.57234e-06
1.57366e-06
1.5736e-06
1.5736e-06
1.57353e-06
1.57353e-06
1.57364e-06
1.55923e-06
1.55772e-06
1.55763e-06
1.55767e-06
1.55907e-06
1.55924e-06
1.55932e-06
1.55794e-06
1.5573e-06
1.55493e-06
1.55493e-06
1.55493e-06
1.55736e-06
1.55785e-06
1.55913e-06
1.55794e-06
1.55727e-06
1.55493e-06
1.55493e-06
1.55494e-06
1.55493e-06
1.55493e-06
1.55731e-06
1.55783e-06
1.55915e-06
1.55923e-06
1.5573e-06
1.55493e-06
1.55494e-06
1.55494e-06
1.55494e-06
1.55494e-06
1.55494e-06
1.55493e-06
1.55733e-06
1.55793e-06
1.5593e-06
1.55772e-06
1.55493e-06
1.55494e-06
1.55494e-06
1.55494e-06
1.55494e-06
1.55494e-06
1.55494e-06
1.55493e-06
1.55493e-06
1.55782e-06
1.5593e-06
1.55763e-06
1.55493e-06
1.55494e-06
1.55494e-06
1.55494e-06
1.55494e-06
1.55494e-06
1.55494e-06
1.55494e-06
1.55493e-06
1.55774e-06
1.55923e-06
1.55767e-06
1.55493e-06
1.55494e-06
1.55494e-06
1.55494e-06
1.55494e-06
1.55494e-06
1.55494e-06
1.55494e-06
1.55493e-06
1.55778e-06
1.55923e-06
1.55907e-06
1.55736e-06
1.55493e-06
1.55494e-06
1.55494e-06
1.55494e-06
1.55494e-06
1.55494e-06
1.55493e-06
1.55739e-06
1.5579e-06
1.55934e-06
1.55924e-06
1.55785e-06
1.55731e-06
1.55493e-06
1.55493e-06
1.55494e-06
1.55493e-06
1.55493e-06
1.55734e-06
1.55774e-06
1.55805e-06
1.55913e-06
1.55783e-06
1.55733e-06
1.55493e-06
1.55493e-06
1.55493e-06
1.55739e-06
1.55774e-06
1.55801e-06
1.55936e-06
1.55915e-06
1.55793e-06
1.55782e-06
1.55774e-06
1.55778e-06
1.5579e-06
1.55805e-06
1.55936e-06
1.5593e-06
1.5593e-06
1.55923e-06
1.55923e-06
1.55934e-06
1.54493e-06
1.54342e-06
1.54333e-06
1.54337e-06
1.54477e-06
1.54494e-06
1.54502e-06
1.54364e-06
1.543e-06
1.54063e-06
1.54063e-06
1.54063e-06
1.54306e-06
1.54355e-06
1.54483e-06
1.54364e-06
1.54297e-06
1.54063e-06
1.54063e-06
1.54063e-06
1.54063e-06
1.54063e-06
1.54301e-06
1.54353e-06
1.54485e-06
1.54493e-06
1.543e-06
1.54063e-06
1.54063e-06
1.54063e-06
1.54064e-06
1.54063e-06
1.54063e-06
1.54063e-06
1.54303e-06
1.54363e-06
1.545e-06
1.54342e-06
1.54063e-06
1.54063e-06
1.54063e-06
1.54064e-06
1.54064e-06
1.54064e-06
1.54063e-06
1.54063e-06
1.54063e-06
1.54352e-06
1.545e-06
1.54333e-06
1.54063e-06
1.54063e-06
1.54064e-06
1.54064e-06
1.54064e-06
1.54064e-06
1.54063e-06
1.54063e-06
1.54063e-06
1.54344e-06
1.54493e-06
1.54337e-06
1.54063e-06
1.54063e-06
1.54063e-06
1.54064e-06
1.54064e-06
1.54064e-06
1.54064e-06
1.54063e-06
1.54063e-06
1.54348e-06
1.54493e-06
1.54477e-06
1.54306e-06
1.54063e-06
1.54063e-06
1.54063e-06
1.54064e-06
1.54063e-06
1.54063e-06
1.54063e-06
1.54309e-06
1.5436e-06
1.54504e-06
1.54494e-06
1.54355e-06
1.54301e-06
1.54063e-06
1.54063e-06
1.54063e-06
1.54063e-06
1.54063e-06
1.54305e-06
1.54344e-06
1.54375e-06
1.54483e-06
1.54353e-06
1.54303e-06
1.54063e-06
1.54063e-06
1.54063e-06
1.54309e-06
1.54344e-06
1.54371e-06
1.54506e-06
1.54485e-06
1.54363e-06
1.54352e-06
1.54344e-06
1.54348e-06
1.5436e-06
1.54375e-06
1.54506e-06
1.545e-06
1.545e-06
1.54493e-06
1.54493e-06
1.54504e-06
1.53063e-06
1.52912e-06
1.52903e-06
1.52907e-06
1.53047e-06
1.53064e-06
1.53072e-06
1.52934e-06
1.5287e-06
1.52633e-06
1.52633e-06
1.52633e-06
1.52876e-06
1.52925e-06
1.53053e-06
1.52934e-06
1.52867e-06
1.52633e-06
1.52633e-06
1.52633e-06
1.52633e-06
1.52633e-06
1.52871e-06
1.52923e-06
1.53055e-06
1.53063e-06
1.5287e-06
1.52633e-06
1.52633e-06
1.52633e-06
1.52633e-06
1.52633e-06
1.52633e-06
1.52633e-06
1.52873e-06
1.52933e-06
1.5307e-06
1.52912e-06
1.52633e-06
1.52633e-06
1.52633e-06
1.52633e-06
1.52633e-06
1.52633e-06
1.52633e-06
1.52633e-06
1.52633e-06
1.52922e-06
1.5307e-06
1.52903e-06
1.52633e-06
1.52633e-06
1.52633e-06
1.52633e-06
1.52634e-06
1.52633e-06
1.52633e-06
1.52633e-06
1.52633e-06
1.52914e-06
1.53063e-06
1.52907e-06
1.52633e-06
1.52633e-06
1.52633e-06
1.52633e-06
1.52633e-06
1.52633e-06
1.52633e-06
1.52633e-06
1.52633e-06
1.52918e-06
1.53063e-06
1.53047e-06
1.52876e-06
1.52633e-06
1.52633e-06
1.52633e-06
1.52633e-06
1.52633e-06
1.52633e-06
1.52633e-06
1.52879e-06
1.5293e-06
1.53074e-06
1.53064e-06
1.52925e-06
1.52871e-06
1.52633e-06
1.52633e-06
1.52633e-06
1.52633e-06
1.52633e-06
1.52874e-06
1.52914e-06
1.52945e-06
1.53053e-06
1.52923e-06
1.52873e-06
1.52633e-06
1.52633e-06
1.52633e-06
1.52879e-06
1.52914e-06
1.52941e-06
1.53076e-06
1.53055e-06
1.52933e-06
1.52922e-06
1.52914e-06
1.52918e-06
1.5293e-06
1.52945e-06
1.53076e-06
1.5307e-06
1.5307e-06
1.53063e-06
1.53063e-06
1.53074e-06
1.51633e-06
1.51482e-06
1.51473e-06
1.51477e-06
1.51617e-06
1.51634e-06
1.51642e-06
1.51504e-06
1.5144e-06
1.51203e-06
1.51203e-06
1.51203e-06
1.51446e-06
1.51495e-06
1.51623e-06
1.51504e-06
1.51437e-06
1.51203e-06
1.51203e-06
1.51203e-06
1.51203e-06
1.51203e-06
1.51441e-06
1.51493e-06
1.51625e-06
1.51633e-06
1.5144e-06
1.51203e-06
1.51203e-06
1.51203e-06
1.51203e-06
1.51203e-06
1.51203e-06
1.51203e-06
1.51443e-06
1.51503e-06
1.5164e-06
1.51482e-06
1.51203e-06
1.51203e-06
1.51203e-06
1.51203e-06
1.51203e-06
1.51203e-06
1.51203e-06
1.51203e-06
1.51203e-06
1.51492e-06
1.5164e-06
1.51473e-06
1.51203e-06
1.51203e-06
1.51203e-06
1.51203e-06
1.51203e-06
1.51203e-06
1.51203e-06
1.51203e-06
1.51203e-06
1.51484e-06
1.51633e-06
1.51477e-06
1.51203e-06
1.51203e-06
1.51203e-06
1.51203e-06
1.51203e-06
1.51203e-06
1.51203e-06
1.51203e-06
1.51203e-06
1.51488e-06
1.51633e-06
1.51617e-06
1.51446e-06
1.51203e-06
1.51203e-06
1.51203e-06
1.51203e-06
1.51203e-06
1.51203e-06
1.51203e-06
1.51449e-06
1.515e-06
1.51644e-06
1.51634e-06
1.51495e-06
1.51441e-06
1.51203e-06
1.51203e-06
1.51203e-06
1.51203e-06
1.51203e-06
1.51444e-06
1.51484e-06
1.51515e-06
1.51623e-06
1.51493e-06
1.51443e-06
1.51203e-06
1.51203e-06
1.51203e-06
1.51449e-06
1.51484e-06
1.51511e-06
1.51646e-06
1.51625e-06
1.51503e-06
1.51492e-06
1.51484e-06
1.51488e-06
1.515e-06
1.51515e-06
1.51646e-06
1.5164e-06
1.5164e-06
1.51633e-06
1.51633e-06
1.51644e-06
1.50203e-06
1.50052e-06
1.50043e-06
1.50047e-06
1.50187e-06
1.50204e-06
1.50212e-06
1.50074e-06
1.5001e-06
1.49773e-06
1.49773e-06
1.49773e-06
1.50016e-06
1.50065e-06
1.50193e-06
1.50074e-06
1.50007e-06
1.49773e-06
1.49773e-06
1.49773e-06
1.49773e-06
1.49773e-06
1.50011e-06
1.50063e-06
1.50195e-06
1.50203e-06
1.5001e-06
1.49773e-06
1.49773e-06
1.49773e-06
1.49773e-06
1.49773e-06
1.49773e-06
1.49773e-06
1.50013e-06
1.50073e-06
1.5021e-06
1.50052e-06
1.49773e-06
1.49773e-06
1.49773e-06
1.49773e-06
1.49773e-06
1.49773e-06
1.49773e-06
1.49773e-06
1.49773e-06
1.50062e-06
1.5021e-06
1.50043e-06
1.49773e-06
1.49773e-06
1.49773e-06
1.49773e-06
1.49773e-06
1.49773e-06
1.49773e-06
1.49773e-06
1.49773e-06
1.50054e-06
1.50203e-06
1.50047e-06
1.49773e-06
1.49773e-06
1.49773e-06
1.49773e-06
1.49773e-06
1.49773e-06
1.49773e-06
1.49773e-06
1.49773e-06
1.50058e-06
1.50203e-06
1.50187e-06
1.50016e-06
1.49773e-06
1.49773e-06
1.49773e-06
1.49773e-06
1.49773e-06
1.49773e-06
1.49773e-06
1.50019e-06
1.5007e-06
1.50214e-06
1.50204e-06
1.50065e-06
1.50011e-06
1.49773e-06
1.49773e-06
1.49773e-06
1.49773e-06
1.49773e-06
1.50014e-06
1.50054e-06
1.50085e-06
1.50193e-06
1.50063e-06
1.50013e-06
1.49773e-06
1.49773e-06
1.49773e-06
1.50019e-06
1.50054e-06
1.50081e-06
1.50216e-06
1.50195e-06
1.50073e-06
1.50062e-06
1.50054e-06
1.50058e-06
1.5007e-06
1.50085e-06
1.50216e-06
1.5021e-06
1.5021e-06
1.50203e-06
1.50203e-06
1.50214e-06
1.48773e-06
1.48622e-06
1.48613e-06
1.48617e-06
1.48757e-06
1.48774e-06
1.48782e-06
1.48644e-06
1.4858e-06
1.48343e-06
1.48343e-06
1.48343e-06
1.48586e-06
1.48635e-06
1.48763e-06
1.48644e-06
1.48577e-06
1.48343e-06
1.48343e-06
1.48343e-06
1.48343e-06
1.48343e-06
1.48581e-06
1.48633e-06
1.48765e-06
1.48773e-06
1.4858e-06
1.48343e-06
1.48343e-06
1.48343e-06
1.48343e-06
1.48343e-06
1.48343e-06
1.48343e-06
1.48583e-06
1.48643e-06
1.4878e-06
1.48622e-06
1.48343e-06
1.48343e-06
1.48343e-06
1.48343e-06
1.48343e-06
1.48343e-06
1.48343e-06
1.48343e-06
1.48343e-06
1.48632e-06
1.4878e-06
1.48613e-06
1.48343e-06
1.48343e-06
1.48343e-06
1.48343e-06
1.48343e-06
1.48343e-06
1.48343e-06
1.48343e-06
1.48343e-06
1.48624e-06
1.48773e-06
1.48617e-06
1.48343e-06
1.48343e-06
1.48343e-06
1.48343e-06
1.48343e-06
1.48343e-06
1.48343e-06
1.48343e-06
1.48343e-06
1.48628e-06
1.48773e-06
1.48757e-06
1.48586e-06
1.48343e-06
1.48343e-06
1.48343e-06
1.48343e-06
1.48343e-06
1.48343e-06
1.48343e-06
1.48589e-06
1.4864e-06
1.48784e-06
1.48774e-06
1.48635e-06
1.48581e-06
1.48343e-06
1.48343e-06
1.48343e-06
1.48343e-06
1.48343e-06
1.48584e-06
1.48624e-06
1.48655e-06
1.48763e-06
1.48633e-06
1.48583e-06
1.48343e-06
1.48343e-06
1.48343e-06
1.48589e-06
1.48624e-06
1.48651e-06
1.48786e-06
1.48765e-06
1.48643e-06
1.48632e-06
1.48624e-06
1.48628e-06
1.4864e-06
1.48655e-06
1.48786e-06
1.4878e-06
1.4878e-06
1.48773e-06
1.48773e-06
1.48784e-06
1.47343e-06
1.47192e-06
1.47183e-06
1.47187e-06
1.47327e-06
1.47344e-06
1.47352e-06
1.47214e-06
1.4715e-06
1.46913e-06
1.46913e-06
1.46913e-06
1.47156e-06
1.47205e-06
1.47333e-06
1.47214e-06
1.47147e-06
1.46913e-06
1.46913e-06
1.46913e-06
1.46913e-06
1.46913e-06
1.47151e-06
1.47203e-06
1.47335e-06
1.47343e-06
1.4715e-06
1.46913e-06
1.46913e-06
1.46913e-06
1.46913e-06
1.46913e-06
1.46913e-06
1.46913e-06
1.47153e-06
1.47213e-06
1.4735e-06
1.47192e-06
1.46913e-06
1.46913e-06
1.46913e-06
1.46913e-06
1.46913e-06
1.46913e-06
1.46913e-06
1.46913e-06
1.46913e-06
1.47202e-06
1.4735e-06
1.47183e-06
1.46913e-06
1.46913e-06
1.46913e-06
1.46913e-06
1.46913e-06
1.46913e-06
1.46913e-06
1.46913e-06
1.46913e-06
1.47194e-06
1.47343e-06
1.47187e-06
1.46913e-06
1.46913e-06
1.46913e-06
1.46913e-06
1.46913e-06
1.46913e-06
1.46913e-06
1.46913e-06
1.46913e-06
1.47198e-06
1.47343e-06
1.47327e-06
1.47156e-06
1.46913e-06
1.46913e-06
1.46913e-06
1.46913e-06
1.46913e-06
1.46913e-06
1.46913e-06
1.47159e-06
1.4721e-06
1.47354e-06
1.47344e-06
1.47205e-06
1.47151e-06
1.46913e-06
1.46913e-06
1.46913e-06
1.46913e-06
1.46913e-06
1.47154e-06
1.47194e-06
1.47225e-06
1.47333e-06
1.47203e-06
1.47153e-06
1.46913e-06
1.46913e-06
1.46913e-06
1.47159e-06
1.47194e-06
1.47221e-06
1.47356e-06
1.47335e-06
1.47213e-06
1.47202e-06
1.47194e-06
1.47198e-06
1.4721e-06
1.47225e-06
1.47356e-06
1.4735e-06
1.4735e-06
1.47343e-06
1.47343e-06
1.47354e-06
1.45913e-06
1.45762e-06
1.45753e-06
1.45757e-06
1.45897e-06
1.45914e-06
1.45922e-06
1.45784e-06
1.4572e-06
1.45483e-06
1.45483e-06
1.45483e-06
1.45726e-06
1.45775e-06
1.45903e-06
1.45784e-06
1.45717e-06
1.45483e-06
1.45483e-06
1.45483e-06
1.45483e-06
1.45483e-06
1.45721e-06
1.45773e-06
1.45905e-06
1.45913e-06
1.4572e-06
1.45483e-06
1.45483e-06
1.45483e-06
1.45483e-06
1.45483e-06
1.45483e-06
1.45483e-06
1.45723e-06
1.45783e-06
1.4592e-06
1.45762e-06
1.45483e-06
1.45483e-06
1.45483e-06
1.45483e-06
1.45483e-06
1.45483e-06
1.45483e-06
1.45483e-06
1.45483e-06
1.45772e-06
1.4592e-06
1.45753e-06
1.45483e-06
1.45483e-06
1.45483e-06
1.45483e-06
1.45483e-06
1.45483e-06
1.45483e-06
1.45483e-06
1.45483e-06
1.45764e-06
1.45913e-06
1.45757e-06
1.45483e-06
1.45483e-06
1.45483e-06
1.45483e-06
1.45483e-06
1.45483e-06
1.45483e-06
1.45483e-06
1.45483e-06
1.45768e-06
1.45913e-06
1.45897e-06
1.45726e-06
1.45483e-06
1.45483e-06
1.45483e-06
1.45483e-06
1.45483e-06
1.45483e-06
1.45483e-06
1.45729e-06
1.4578e-06
1.45924e-06
1.45914e-06
1.45775e-06
1.45721e-06
1.45483e-06
1.45483e-06
1.45483e-06
1.45483e-06
1.45483e-06
1.45724e-06
1.45764e-06
1.45795e-06
1.45903e-06
1.45773e-06
1.45723e-06
1.45483e-06
1.45483e-06
1.45483e-06
1.45729e-06
1.45764e-06
1.45791e-06
1.45926e-06
1.45905e-06
1.45783e-06
1.45772e-06
1.45764e-06
1.45768e-06
1.4578e-06
1.45795e-06
1.45926e-06
1.4592e-06
1.4592e-06
1.45913e-06
1.45913e-06
1.45924e-06
1.44483e-06
1.44332e-06
1.44323e-06
1.44327e-06
1.44467e-06
1.44484e-06
1.44492e-06
1.44354e-06
1.4429e-06
1.44053e-06
1.44053e-06
1.44053e-06
1.44296e-06
1.44345e-06
1.44473e-06
1.44354e-06
1.44287e-06
1.44053e-06
1.44053e-06
1.44053e-06
1.44053e-06
1.44053e-06
1.44291e-06
1.44343e-06
1.44475e-06
1.44483e-06
1.4429e-06
1.44053e-06
1.44053e-06
1.44053e-06
1.44053e-06
1.44053e-06
1.44053e-06
1.44053e-06
1.44293e-06
1.44353e-06
1.4449e-06
1.44332e-06
1.44053e-06
1.44053e-06
1.44053e-06
1.44053e-06
1.44053e-06
1.44053e-06
1.44053e-06
1.44053e-06
1.44053e-06
1.44342e-06
1.4449e-06
1.44323e-06
1.44053e-06
1.44053e-06
1.44053e-06
1.44053e-06
1.44053e-06
1.44053e-06
1.44053e-06
1.44053e-06
1.44053e-06
1.44334e-06
1.44483e-06
1.44327e-06
1.44053e-06
1.44053e-06
1.44053e-06
1.44053e-06
1.44053e-06
1.44053e-06
1.44053e-06
1.44053e-06
1.44053e-06
1.44338e-06
1.44483e-06
1.44467e-06
1.44296e-06
1.44053e-06
1.44053e-06
1.44053e-06
1.44053e-06
1.44053e-06
1.44053e-06
1.44053e-06
1.44299e-06
1.4435e-06
1.44494e-06
1.44484e-06
1.44345e-06
1.44291e-06
1.44053e-06
1.44053e-06
1.44053e-06
1.44053e-06
1.44053e-06
1.44294e-06
1.44334e-06
1.44365e-06
1.44473e-06
1.44343e-06
1.44293e-06
1.44053e-06
1.44053e-06
1.44053e-06
1.44299e-06
1.44334e-06
1.44361e-06
1.44496e-06
1.44475e-06
1.44353e-06
1.44342e-06
1.44334e-06
1.44338e-06
1.4435e-06
1.44365e-06
1.44496e-06
1.4449e-06
1.4449e-06
1.44483e-06
1.44483e-06
1.44494e-06
1.43053e-06
1.42902e-06
1.42893e-06
1.42897e-06
1.43037e-06
1.43054e-06
1.43062e-06
1.42924e-06
1.4286e-06
1.42623e-06
1.42623e-06
1.42623e-06
1.42866e-06
1.42915e-06
1.43043e-06
1.42924e-06
1.42857e-06
1.42623e-06
1.42623e-06
1.42623e-06
1.42623e-06
1.42623e-06
1.42861e-06
1.42913e-06
1.43045e-06
1.43053e-06
1.4286e-06
1.42623e-06
1.42623e-06
1.42623e-06
1.42623e-06
1.42623e-06
1.42623e-06
1.42623e-06
1.42863e-06
1.42923e-06
1.4306e-06
1.42902e-06
1.42623e-06
1.42623e-06
1.42623e-06
1.42623e-06
1.42623e-06
1.42623e-06
1.42623e-06
1.42623e-06
1.42623e-06
1.42912e-06
1.4306e-06
1.42893e-06
1.42623e-06
1.42623e-06
1.42623e-06
1.42623e-06
1.42623e-06
1.42623e-06
1.42623e-06
1.42623e-06
1.42623e-06
1.42904e-06
1.43053e-06
1.42897e-06
1.42623e-06
1.42623e-06
1.42623e-06
1.42623e-06
1.42623e-06
1.42623e-06
1.42623e-06
1.42623e-06
1.42623e-06
1.42908e-06
1.43053e-06
1.43037e-06
1.42866e-06
1.42623e-06
1.42623e-06
1.42623e-06
1.42623e-06
1.42623e-06
1.42623e-06
1.42623e-06
1.42869e-06
1.4292e-06
1.43064e-06
1.43054e-06
1.42915e-06
1.42861e-06
1.42623e-06
1.42623e-06
1.42623e-06
1.42623e-06
1.42623e-06
1.42864e-06
1.42904e-06
1.42935e-06
1.43043e-06
1.42913e-06
1.42863e-06
1.42623e-06
1.42623e-06
1.42623e-06
1.42869e-06
1.42904e-06
1.42931e-06
1.43066e-06
1.43045e-06
1.42923e-06
1.42912e-06
1.42904e-06
1.42908e-06
1.4292e-06
1.42935e-06
1.43066e-06
1.4306e-06
1.4306e-06
1.43053e-06
1.43053e-06
1.43064e-06
1.41623e-06
1.41472e-06
1.41463e-06
1.41467e-06
1.41607e-06
1.41624e-06
1.41632e-06
1.41494e-06
1.4143e-06
1.41193e-06
1.41193e-06
1.41193e-06
1.41436e-06
1.41485e-06
1.41613e-06
1.41494e-06
1.41427e-06
1.41193e-06
1.41193e-06
1.41193e-06
1.41193e-06
1.41193e-06
1.41431e-06
1.41483e-06
1.41615e-06
1.41623e-06
1.4143e-06
1.41193e-06
1.41193e-06
1.41193e-06
1.41193e-06
1.41193e-06
1.41193e-06
1.41193e-06
1.41433e-06
1.41493e-06
1.4163e-06
1.41472e-06
1.41193e-06
1.41193e-06
1.41193e-06
1.41193e-06
1.41193e-06
1.41193e-06
1.41193e-06
1.41193e-06
1.41193e-06
1.41482e-06
1.4163e-06
1.41463e-06
1.41193e-06
1.41193e-06
1.41193e-06
1.41193e-06
1.41193e-06
1.41193e-06
1.41193e-06
1.41193e-06
1.41193e-06
1.41474e-06
1.41623e-06
1.41467e-06
1.41193e-06
1.41193e-06