/*--------------------------------*- C++ -*----------------------------------*\
| =========                 |                                                 |
| \\      /  F ield         | OpenFOAM: The Open Source CFD Toolbox           |
|  \\    /   O peration     | Version:  v2012                                 |
|   \\  /    A nd           | Website:  www.openfoam.com                      |
|    \\/     M anipulation  |                                                 |
\*---------------------------------------------------------------------------*/
FoamFile
{
    version     2.0;
    format      ascii;
    class       volScalarField;
    location    "28";
    object      p;
}
// * * * * * * * * * * * * * * * * * * * * * * * * * * * * * * * * * * * * * //

dimensions      [0 2 -2 0 0 0 0];


internalField   nonuniform List<scalar> 
292667
(
1.45776e-06
1.44691e-06
1.44598e-06
1.44607e-06
1.44739e-06
1.45874e-06
1.44713e-06
1.44379e-06
1.44187e-06
1.44108e-06
1.44119e-06
1.44222e-06
1.44445e-06
1.44813e-06
1.44713e-06
1.44281e-06
1.44018e-06
1.43874e-06
1.43813e-06
1.43821e-06
1.439e-06
1.44068e-06
1.44368e-06
1.44843e-06
1.45776e-06
1.44379e-06
1.44018e-06
1.43806e-06
1.43688e-06
1.43637e-06
1.43644e-06
1.4371e-06
1.43848e-06
1.44089e-06
1.44498e-06
1.45785e-06
1.44691e-06
1.44187e-06
1.43874e-06
1.43688e-06
1.43582e-06
1.43537e-06
1.43543e-06
1.43602e-06
1.43725e-06
1.43937e-06
1.44293e-06
1.45141e-06
1.44598e-06
1.44108e-06
1.43813e-06
1.43637e-06
1.43537e-06
1.43493e-06
1.43499e-06
1.43556e-06
1.43673e-06
1.43873e-06
1.4421e-06
1.44934e-06
1.44607e-06
1.44119e-06
1.43821e-06
1.43644e-06
1.43543e-06
1.43499e-06
1.43505e-06
1.43562e-06
1.4368e-06
1.43882e-06
1.44222e-06
1.4497e-06
1.44739e-06
1.44222e-06
1.439e-06
1.4371e-06
1.43602e-06
1.43556e-06
1.43562e-06
1.43623e-06
1.43749e-06
1.43966e-06
1.44333e-06
1.45179e-06
1.45874e-06
1.44445e-06
1.44068e-06
1.43848e-06
1.43725e-06
1.43673e-06
1.4368e-06
1.43749e-06
1.43892e-06
1.44145e-06
1.44569e-06
1.45795e-06
1.44813e-06
1.44368e-06
1.44089e-06
1.43937e-06
1.43873e-06
1.43882e-06
1.43966e-06
1.44145e-06
1.44464e-06
1.45228e-06
1.44843e-06
1.44498e-06
1.44293e-06
1.4421e-06
1.44222e-06
1.44333e-06
1.44569e-06
1.45228e-06
1.45785e-06
1.45141e-06
1.44934e-06
1.4497e-06
1.45179e-06
1.45795e-06
1.42615e-06
1.42489e-06
1.42487e-06
1.4249e-06
1.426e-06
1.42598e-06
1.42623e-06
1.42522e-06
1.42477e-06
1.4229e-06
1.42288e-06
1.4229e-06
1.42488e-06
1.42517e-06
1.42615e-06
1.42522e-06
1.42479e-06
1.42296e-06
1.42286e-06
1.42291e-06
1.42286e-06
1.42296e-06
1.42485e-06
1.42515e-06
1.42612e-06
1.42615e-06
1.42477e-06
1.42296e-06
1.42288e-06
1.42292e-06
1.42291e-06
1.42292e-06
1.42288e-06
1.42296e-06
1.42483e-06
1.42517e-06
1.42625e-06
1.42489e-06
1.4229e-06
1.42286e-06
1.42292e-06
1.42289e-06
1.42288e-06
1.42289e-06
1.42292e-06
1.42286e-06
1.4229e-06
1.42523e-06
1.42629e-06
1.42487e-06
1.42288e-06
1.42291e-06
1.42291e-06
1.42288e-06
1.42287e-06
1.42288e-06
1.42291e-06
1.42291e-06
1.42288e-06
1.42521e-06
1.42607e-06
1.4249e-06
1.4229e-06
1.42286e-06
1.42292e-06
1.42289e-06
1.42288e-06
1.42289e-06
1.42292e-06
1.42286e-06
1.4229e-06
1.42523e-06
1.42613e-06
1.426e-06
1.42488e-06
1.42296e-06
1.42288e-06
1.42292e-06
1.42291e-06
1.42292e-06
1.42288e-06
1.42296e-06
1.42492e-06
1.42519e-06
1.42629e-06
1.42598e-06
1.42517e-06
1.42485e-06
1.42296e-06
1.42286e-06
1.42291e-06
1.42286e-06
1.42296e-06
1.42489e-06
1.42513e-06
1.42523e-06
1.42615e-06
1.42515e-06
1.42483e-06
1.4229e-06
1.42288e-06
1.4229e-06
1.42492e-06
1.42513e-06
1.42531e-06
1.42629e-06
1.42612e-06
1.42517e-06
1.42523e-06
1.42521e-06
1.42523e-06
1.42519e-06
1.42523e-06
1.42629e-06
1.42625e-06
1.42629e-06
1.42607e-06
1.42613e-06
1.42629e-06
1.41397e-06
1.41279e-06
1.41271e-06
1.41276e-06
1.41389e-06
1.41399e-06
1.41403e-06
1.41298e-06
1.41246e-06
1.41062e-06
1.41061e-06
1.41062e-06
1.41259e-06
1.41295e-06
1.41393e-06
1.41298e-06
1.41246e-06
1.41068e-06
1.41066e-06
1.4107e-06
1.41066e-06
1.41068e-06
1.41258e-06
1.41294e-06
1.41394e-06
1.41397e-06
1.41246e-06
1.41068e-06
1.41068e-06
1.41075e-06
1.41075e-06
1.41075e-06
1.41068e-06
1.41068e-06
1.41257e-06
1.413e-06
1.41403e-06
1.41279e-06
1.41062e-06
1.41066e-06
1.41075e-06
1.41077e-06
1.41078e-06
1.41077e-06
1.41075e-06
1.41066e-06
1.41062e-06
1.413e-06
1.41411e-06
1.41271e-06
1.41061e-06
1.41071e-06
1.41075e-06
1.41078e-06
1.41079e-06
1.41078e-06
1.41075e-06
1.4107e-06
1.41061e-06
1.41298e-06
1.41408e-06
1.41276e-06
1.41062e-06
1.41066e-06
1.41075e-06
1.41077e-06
1.41078e-06
1.41077e-06
1.41075e-06
1.41066e-06
1.41062e-06
1.41299e-06
1.41408e-06
1.41389e-06
1.41259e-06
1.41068e-06
1.41068e-06
1.41075e-06
1.41075e-06
1.41075e-06
1.41068e-06
1.41068e-06
1.4127e-06
1.41301e-06
1.41413e-06
1.41399e-06
1.41295e-06
1.41258e-06
1.41068e-06
1.41066e-06
1.41071e-06
1.41066e-06
1.41068e-06
1.41268e-06
1.41291e-06
1.41309e-06
1.41393e-06
1.41294e-06
1.41257e-06
1.41062e-06
1.41061e-06
1.41062e-06
1.4127e-06
1.41291e-06
1.41307e-06
1.41412e-06
1.41394e-06
1.413e-06
1.413e-06
1.41298e-06
1.41299e-06
1.41301e-06
1.41309e-06
1.41412e-06
1.41403e-06
1.41411e-06
1.41408e-06
1.41408e-06
1.41413e-06
1.4019e-06
1.4007e-06
1.40062e-06
1.40067e-06
1.40181e-06
1.40192e-06
1.40196e-06
1.40087e-06
1.40032e-06
1.39847e-06
1.39846e-06
1.39847e-06
1.40045e-06
1.40085e-06
1.40186e-06
1.40087e-06
1.40031e-06
1.3985e-06
1.3985e-06
1.39853e-06
1.3985e-06
1.3985e-06
1.40043e-06
1.40084e-06
1.40186e-06
1.4019e-06
1.40032e-06
1.3985e-06
1.39852e-06
1.39857e-06
1.39857e-06
1.39857e-06
1.39852e-06
1.3985e-06
1.40044e-06
1.40092e-06
1.40196e-06
1.4007e-06
1.39847e-06
1.3985e-06
1.39857e-06
1.39859e-06
1.3986e-06
1.39859e-06
1.39857e-06
1.3985e-06
1.39847e-06
1.4009e-06
1.40203e-06
1.40062e-06
1.39846e-06
1.39853e-06
1.39857e-06
1.3986e-06
1.39861e-06
1.3986e-06
1.39857e-06
1.39853e-06
1.39846e-06
1.40087e-06
1.402e-06
1.40067e-06
1.39847e-06
1.3985e-06
1.39857e-06
1.39859e-06
1.3986e-06
1.39859e-06
1.39857e-06
1.3985e-06
1.39847e-06
1.40088e-06
1.40201e-06
1.40181e-06
1.40045e-06
1.3985e-06
1.39852e-06
1.39857e-06
1.39857e-06
1.39857e-06
1.39852e-06
1.3985e-06
1.40059e-06
1.40093e-06
1.40205e-06
1.40192e-06
1.40085e-06
1.40043e-06
1.3985e-06
1.3985e-06
1.39853e-06
1.3985e-06
1.3985e-06
1.40056e-06
1.40082e-06
1.40101e-06
1.40186e-06
1.40084e-06
1.40044e-06
1.39847e-06
1.39846e-06
1.39847e-06
1.40059e-06
1.40082e-06
1.40099e-06
1.40205e-06
1.40186e-06
1.40092e-06
1.4009e-06
1.40087e-06
1.40088e-06
1.40093e-06
1.40101e-06
1.40205e-06
1.40196e-06
1.40203e-06
1.402e-06
1.40201e-06
1.40205e-06
1.38981e-06
1.38861e-06
1.38853e-06
1.38858e-06
1.38973e-06
1.38983e-06
1.38987e-06
1.38878e-06
1.38822e-06
1.38635e-06
1.38635e-06
1.38635e-06
1.38835e-06
1.38875e-06
1.38977e-06
1.38878e-06
1.3882e-06
1.38637e-06
1.38638e-06
1.38639e-06
1.38638e-06
1.38637e-06
1.38832e-06
1.38875e-06
1.38978e-06
1.38981e-06
1.38822e-06
1.38637e-06
1.38639e-06
1.38641e-06
1.38642e-06
1.38641e-06
1.38639e-06
1.38637e-06
1.38834e-06
1.38883e-06
1.38988e-06
1.38861e-06
1.38635e-06
1.38638e-06
1.38641e-06
1.38643e-06
1.38644e-06
1.38643e-06
1.38641e-06
1.38638e-06
1.38635e-06
1.38881e-06
1.38995e-06
1.38853e-06
1.38635e-06
1.38639e-06
1.38642e-06
1.38644e-06
1.38645e-06
1.38644e-06
1.38642e-06
1.38639e-06
1.38635e-06
1.38878e-06
1.38992e-06
1.38858e-06
1.38635e-06
1.38638e-06
1.38641e-06
1.38643e-06
1.38644e-06
1.38643e-06
1.38641e-06
1.38638e-06
1.38635e-06
1.38879e-06
1.38992e-06
1.38973e-06
1.38835e-06
1.38637e-06
1.38639e-06
1.38641e-06
1.38642e-06
1.38641e-06
1.38639e-06
1.38637e-06
1.38849e-06
1.38884e-06
1.38997e-06
1.38983e-06
1.38875e-06
1.38832e-06
1.38637e-06
1.38638e-06
1.38639e-06
1.38638e-06
1.38637e-06
1.38846e-06
1.38873e-06
1.38893e-06
1.38977e-06
1.38875e-06
1.38834e-06
1.38635e-06
1.38635e-06
1.38635e-06
1.38849e-06
1.38873e-06
1.3889e-06
1.38997e-06
1.38978e-06
1.38883e-06
1.38881e-06
1.38878e-06
1.38879e-06
1.38884e-06
1.38893e-06
1.38997e-06
1.38988e-06
1.38995e-06
1.38992e-06
1.38992e-06
1.38997e-06
1.37773e-06
1.37652e-06
1.37644e-06
1.37649e-06
1.37764e-06
1.37775e-06
1.37779e-06
1.37669e-06
1.37613e-06
1.37426e-06
1.37426e-06
1.37426e-06
1.37625e-06
1.37666e-06
1.37769e-06
1.37669e-06
1.3761e-06
1.37426e-06
1.37427e-06
1.37428e-06
1.37427e-06
1.37426e-06
1.37622e-06
1.37666e-06
1.37769e-06
1.37773e-06
1.37613e-06
1.37426e-06
1.37427e-06
1.37429e-06
1.37429e-06
1.37429e-06
1.37427e-06
1.37426e-06
1.37625e-06
1.37674e-06
1.37779e-06
1.37652e-06
1.37426e-06
1.37427e-06
1.37429e-06
1.3743e-06
1.37431e-06
1.3743e-06
1.37429e-06
1.37427e-06
1.37426e-06
1.37672e-06
1.37786e-06
1.37644e-06
1.37426e-06
1.37428e-06
1.37429e-06
1.37431e-06
1.37431e-06
1.37431e-06
1.37429e-06
1.37428e-06
1.37426e-06
1.37669e-06
1.37783e-06
1.37649e-06
1.37426e-06
1.37427e-06
1.37429e-06
1.3743e-06
1.37431e-06
1.3743e-06
1.37429e-06
1.37427e-06
1.37426e-06
1.3767e-06
1.37784e-06
1.37764e-06
1.37625e-06
1.37426e-06
1.37427e-06
1.37429e-06
1.37429e-06
1.37429e-06
1.37427e-06
1.37426e-06
1.3764e-06
1.37675e-06
1.37788e-06
1.37775e-06
1.37666e-06
1.37622e-06
1.37426e-06
1.37427e-06
1.37428e-06
1.37427e-06
1.37426e-06
1.37637e-06
1.37664e-06
1.37685e-06
1.37769e-06
1.37666e-06
1.37625e-06
1.37426e-06
1.37426e-06
1.37426e-06
1.3764e-06
1.37664e-06
1.37682e-06
1.37788e-06
1.37769e-06
1.37674e-06
1.37672e-06
1.37669e-06
1.3767e-06
1.37675e-06
1.37685e-06
1.37788e-06
1.37779e-06
1.37786e-06
1.37783e-06
1.37784e-06
1.37788e-06
1.36564e-06
1.36443e-06
1.36435e-06
1.3644e-06
1.36555e-06
1.36566e-06
1.3657e-06
1.3646e-06
1.36404e-06
1.36216e-06
1.36216e-06
1.36216e-06
1.36416e-06
1.36458e-06
1.3656e-06
1.3646e-06
1.36401e-06
1.36217e-06
1.36217e-06
1.36217e-06
1.36217e-06
1.36217e-06
1.36413e-06
1.36457e-06
1.36561e-06
1.36564e-06
1.36404e-06
1.36217e-06
1.36217e-06
1.36218e-06
1.36218e-06
1.36218e-06
1.36217e-06
1.36217e-06
1.36416e-06
1.36466e-06
1.3657e-06
1.36443e-06
1.36216e-06
1.36217e-06
1.36218e-06
1.36219e-06
1.36219e-06
1.36219e-06
1.36218e-06
1.36217e-06
1.36216e-06
1.36463e-06
1.36577e-06
1.36435e-06
1.36216e-06
1.36217e-06
1.36218e-06
1.36219e-06
1.36219e-06
1.36219e-06
1.36218e-06
1.36217e-06
1.36216e-06
1.3646e-06
1.36575e-06
1.3644e-06
1.36216e-06
1.36217e-06
1.36218e-06
1.36219e-06
1.36219e-06
1.36219e-06
1.36218e-06
1.36217e-06
1.36216e-06
1.36461e-06
1.36575e-06
1.36555e-06
1.36416e-06
1.36217e-06
1.36217e-06
1.36218e-06
1.36218e-06
1.36218e-06
1.36217e-06
1.36217e-06
1.36431e-06
1.36467e-06
1.3658e-06
1.36566e-06
1.36458e-06
1.36413e-06
1.36217e-06
1.36217e-06
1.36217e-06
1.36217e-06
1.36217e-06
1.36427e-06
1.36456e-06
1.36476e-06
1.3656e-06
1.36457e-06
1.36415e-06
1.36216e-06
1.36216e-06
1.36216e-06
1.36431e-06
1.36456e-06
1.36473e-06
1.36579e-06
1.36561e-06
1.36466e-06
1.36463e-06
1.3646e-06
1.36461e-06
1.36467e-06
1.36476e-06
1.36579e-06
1.3657e-06
1.36577e-06
1.36575e-06
1.36575e-06
1.3658e-06
1.35355e-06
1.35235e-06
1.35226e-06
1.35231e-06
1.35346e-06
1.35357e-06
1.35361e-06
1.35251e-06
1.35195e-06
1.35007e-06
1.35007e-06
1.35007e-06
1.35207e-06
1.35249e-06
1.35351e-06
1.35251e-06
1.35192e-06
1.35007e-06
1.35008e-06
1.35008e-06
1.35008e-06
1.35007e-06
1.35204e-06
1.35248e-06
1.35352e-06
1.35355e-06
1.35195e-06
1.35007e-06
1.35008e-06
1.35008e-06
1.35008e-06
1.35008e-06
1.35008e-06
1.35007e-06
1.35207e-06
1.35257e-06
1.35362e-06
1.35235e-06
1.35007e-06
1.35008e-06
1.35008e-06
1.35009e-06
1.35009e-06
1.35009e-06
1.35008e-06
1.35008e-06
1.35007e-06
1.35254e-06
1.35369e-06
1.35226e-06
1.35007e-06
1.35008e-06
1.35008e-06
1.35009e-06
1.35009e-06
1.35009e-06
1.35008e-06
1.35008e-06
1.35007e-06
1.35251e-06
1.35366e-06
1.35231e-06
1.35007e-06
1.35008e-06
1.35008e-06
1.35009e-06
1.35009e-06
1.35009e-06
1.35008e-06
1.35008e-06
1.35007e-06
1.35252e-06
1.35366e-06
1.35346e-06
1.35207e-06
1.35007e-06
1.35008e-06
1.35008e-06
1.35008e-06
1.35008e-06
1.35008e-06
1.35007e-06
1.35222e-06
1.35258e-06
1.35371e-06
1.35357e-06
1.35249e-06
1.35204e-06
1.35007e-06
1.35008e-06
1.35008e-06
1.35008e-06
1.35007e-06
1.35218e-06
1.35247e-06
1.35267e-06
1.35351e-06
1.35248e-06
1.35207e-06
1.35007e-06
1.35007e-06
1.35007e-06
1.35222e-06
1.35247e-06
1.35264e-06
1.35371e-06
1.35352e-06
1.35257e-06
1.35254e-06
1.35251e-06
1.35252e-06
1.35258e-06
1.35267e-06
1.35371e-06
1.35362e-06
1.35369e-06
1.35366e-06
1.35366e-06
1.35371e-06
1.34146e-06
1.34026e-06
1.34017e-06
1.34023e-06
1.34138e-06
1.34148e-06
1.34152e-06
1.34043e-06
1.33986e-06
1.33798e-06
1.33798e-06
1.33798e-06
1.33998e-06
1.3404e-06
1.34142e-06
1.34043e-06
1.33983e-06
1.33798e-06
1.33798e-06
1.33798e-06
1.33798e-06
1.33798e-06
1.33995e-06
1.34039e-06
1.34143e-06
1.34146e-06
1.33986e-06
1.33798e-06
1.33798e-06
1.33799e-06
1.33799e-06
1.33799e-06
1.33798e-06
1.33798e-06
1.33998e-06
1.34048e-06
1.34153e-06
1.34026e-06
1.33798e-06
1.33798e-06
1.33799e-06
1.33799e-06
1.33799e-06
1.33799e-06
1.33799e-06
1.33798e-06
1.33798e-06
1.34045e-06
1.3416e-06
1.34017e-06
1.33798e-06
1.33798e-06
1.33799e-06
1.33799e-06
1.33799e-06
1.33799e-06
1.33799e-06
1.33798e-06
1.33798e-06
1.34042e-06
1.34157e-06
1.34023e-06
1.33798e-06
1.33798e-06
1.33799e-06
1.33799e-06
1.33799e-06
1.33799e-06
1.33799e-06
1.33798e-06
1.33798e-06
1.34043e-06
1.34157e-06
1.34138e-06
1.33998e-06
1.33798e-06
1.33798e-06
1.33799e-06
1.33799e-06
1.33799e-06
1.33798e-06
1.33798e-06
1.34013e-06
1.34049e-06
1.34162e-06
1.34148e-06
1.3404e-06
1.33995e-06
1.33798e-06
1.33798e-06
1.33798e-06
1.33798e-06
1.33798e-06
1.3401e-06
1.34038e-06
1.34058e-06
1.34142e-06
1.34039e-06
1.33998e-06
1.33798e-06
1.33798e-06
1.33798e-06
1.34013e-06
1.34038e-06
1.34055e-06
1.34162e-06
1.34143e-06
1.34048e-06
1.34045e-06
1.34042e-06
1.34043e-06
1.34049e-06
1.34058e-06
1.34162e-06
1.34153e-06
1.3416e-06
1.34157e-06
1.34157e-06
1.34162e-06
1.32937e-06
1.32817e-06
1.32809e-06
1.32814e-06
1.32929e-06
1.3294e-06
1.32944e-06
1.32834e-06
1.32777e-06
1.32589e-06
1.32589e-06
1.32589e-06
1.3279e-06
1.32831e-06
1.32934e-06
1.32834e-06
1.32774e-06
1.32589e-06
1.32589e-06
1.32589e-06
1.32589e-06
1.32589e-06
1.32786e-06
1.3283e-06
1.32934e-06
1.32937e-06
1.32777e-06
1.32589e-06
1.32589e-06
1.32589e-06
1.3259e-06
1.32589e-06
1.32589e-06
1.32589e-06
1.32789e-06
1.32839e-06
1.32944e-06
1.32817e-06
1.32589e-06
1.32589e-06
1.32589e-06
1.3259e-06
1.3259e-06
1.3259e-06
1.32589e-06
1.32589e-06
1.32589e-06
1.32836e-06
1.32951e-06
1.32809e-06
1.32589e-06
1.32589e-06
1.3259e-06
1.3259e-06
1.3259e-06
1.3259e-06
1.3259e-06
1.32589e-06
1.32589e-06
1.32833e-06
1.32948e-06
1.32814e-06
1.32589e-06
1.32589e-06
1.32589e-06
1.3259e-06
1.3259e-06
1.3259e-06
1.32589e-06
1.32589e-06
1.32589e-06
1.32834e-06
1.32948e-06
1.32929e-06
1.3279e-06
1.32589e-06
1.32589e-06
1.32589e-06
1.3259e-06
1.32589e-06
1.32589e-06
1.32589e-06
1.32805e-06
1.3284e-06
1.32953e-06
1.3294e-06
1.32831e-06
1.32786e-06
1.32589e-06
1.32589e-06
1.32589e-06
1.32589e-06
1.32589e-06
1.32801e-06
1.32829e-06
1.32849e-06
1.32934e-06
1.3283e-06
1.32789e-06
1.32589e-06
1.32589e-06
1.32589e-06
1.32805e-06
1.32829e-06
1.32847e-06
1.32953e-06
1.32934e-06
1.32839e-06
1.32836e-06
1.32833e-06
1.32835e-06
1.3284e-06
1.32849e-06
1.32953e-06
1.32944e-06
1.32951e-06
1.32948e-06
1.32948e-06
1.32953e-06
1.31729e-06
1.31608e-06
1.316e-06
1.31605e-06
1.3172e-06
1.31731e-06
1.31735e-06
1.31625e-06
1.31568e-06
1.3138e-06
1.3138e-06
1.3138e-06
1.31581e-06
1.31622e-06
1.31725e-06
1.31625e-06
1.31565e-06
1.3138e-06
1.3138e-06
1.3138e-06
1.3138e-06
1.3138e-06
1.31577e-06
1.31621e-06
1.31725e-06
1.31729e-06
1.31568e-06
1.3138e-06
1.3138e-06
1.3138e-06
1.3138e-06
1.3138e-06
1.3138e-06
1.3138e-06
1.3158e-06
1.3163e-06
1.31735e-06
1.31608e-06
1.3138e-06
1.3138e-06
1.3138e-06
1.31381e-06
1.31381e-06
1.31381e-06
1.3138e-06
1.3138e-06
1.3138e-06
1.31628e-06
1.31742e-06
1.316e-06
1.3138e-06
1.3138e-06
1.3138e-06
1.31381e-06
1.31381e-06
1.31381e-06
1.3138e-06
1.3138e-06
1.3138e-06
1.31624e-06
1.31739e-06
1.31605e-06
1.3138e-06
1.3138e-06
1.3138e-06
1.31381e-06
1.31381e-06
1.31381e-06
1.3138e-06
1.3138e-06
1.3138e-06
1.31626e-06
1.3174e-06
1.3172e-06
1.31581e-06
1.3138e-06
1.3138e-06
1.3138e-06
1.3138e-06
1.3138e-06
1.3138e-06
1.3138e-06
1.31596e-06
1.31631e-06
1.31744e-06
1.31731e-06
1.31622e-06
1.31577e-06
1.3138e-06
1.3138e-06
1.3138e-06
1.3138e-06
1.3138e-06
1.31592e-06
1.3162e-06
1.31641e-06
1.31725e-06
1.31621e-06
1.3158e-06
1.3138e-06
1.3138e-06
1.3138e-06
1.31596e-06
1.3162e-06
1.31638e-06
1.31744e-06
1.31725e-06
1.3163e-06
1.31628e-06
1.31624e-06
1.31626e-06
1.31631e-06
1.31641e-06
1.31744e-06
1.31735e-06
1.31742e-06
1.31739e-06
1.3174e-06
1.31744e-06
1.3052e-06
1.30399e-06
1.30391e-06
1.30396e-06
1.30511e-06
1.30522e-06
1.30526e-06
1.30416e-06
1.30359e-06
1.30171e-06
1.30171e-06
1.30171e-06
1.30372e-06
1.30413e-06
1.30516e-06
1.30416e-06
1.30356e-06
1.30171e-06
1.30171e-06
1.30171e-06
1.30171e-06
1.30171e-06
1.30369e-06
1.30413e-06
1.30516e-06
1.3052e-06
1.30359e-06
1.30171e-06
1.30171e-06
1.30171e-06
1.30171e-06
1.30171e-06
1.30171e-06
1.30171e-06
1.30371e-06
1.30421e-06
1.30526e-06
1.30399e-06
1.30171e-06
1.30171e-06
1.30171e-06
1.30172e-06
1.30172e-06
1.30172e-06
1.30171e-06
1.30171e-06
1.30171e-06
1.30419e-06
1.30533e-06
1.30391e-06
1.30171e-06
1.30171e-06
1.30171e-06
1.30172e-06
1.30172e-06
1.30172e-06
1.30171e-06
1.30171e-06
1.30171e-06
1.30415e-06
1.3053e-06
1.30396e-06
1.30171e-06
1.30171e-06
1.30171e-06
1.30172e-06
1.30172e-06
1.30172e-06
1.30171e-06
1.30171e-06
1.30171e-06
1.30417e-06
1.30531e-06
1.30511e-06
1.30372e-06
1.30171e-06
1.30171e-06
1.30171e-06
1.30171e-06
1.30171e-06
1.30171e-06
1.30171e-06
1.30387e-06
1.30422e-06
1.30535e-06
1.30522e-06
1.30413e-06
1.30369e-06
1.30171e-06
1.30171e-06
1.30171e-06
1.30171e-06
1.30171e-06
1.30383e-06
1.30411e-06
1.30432e-06
1.30516e-06
1.30413e-06
1.30371e-06
1.30171e-06
1.30171e-06
1.30171e-06
1.30387e-06
1.30411e-06
1.30429e-06
1.30535e-06
1.30516e-06
1.30421e-06
1.30419e-06
1.30415e-06
1.30417e-06
1.30422e-06
1.30432e-06
1.30535e-06
1.30526e-06
1.30533e-06
1.3053e-06
1.30531e-06
1.30535e-06
1.29311e-06
1.2919e-06
1.29182e-06
1.29187e-06
1.29302e-06
1.29313e-06
1.29317e-06
1.29207e-06
1.2915e-06
1.28962e-06
1.28963e-06
1.28962e-06
1.29163e-06
1.29204e-06
1.29307e-06
1.29207e-06
1.29147e-06
1.28963e-06
1.28963e-06
1.28963e-06
1.28963e-06
1.28963e-06
1.2916e-06
1.29204e-06
1.29308e-06
1.29311e-06
1.2915e-06
1.28963e-06
1.28963e-06
1.28963e-06
1.28963e-06
1.28963e-06
1.28963e-06
1.28963e-06
1.29162e-06
1.29212e-06
1.29317e-06
1.2919e-06
1.28962e-06
1.28963e-06
1.28963e-06
1.28963e-06
1.28963e-06
1.28963e-06
1.28963e-06
1.28963e-06
1.28962e-06
1.2921e-06
1.29324e-06
1.29182e-06
1.28963e-06
1.28963e-06
1.28963e-06
1.28963e-06
1.28963e-06
1.28963e-06
1.28963e-06
1.28963e-06
1.28963e-06
1.29206e-06
1.29321e-06
1.29187e-06
1.28962e-06
1.28963e-06
1.28963e-06
1.28963e-06
1.28963e-06
1.28963e-06
1.28963e-06
1.28963e-06
1.28962e-06
1.29208e-06
1.29322e-06
1.29302e-06
1.29163e-06
1.28963e-06
1.28963e-06
1.28963e-06
1.28963e-06
1.28963e-06
1.28963e-06
1.28962e-06
1.29178e-06
1.29213e-06
1.29326e-06
1.29313e-06
1.29204e-06
1.2916e-06
1.28963e-06
1.28963e-06
1.28963e-06
1.28963e-06
1.28963e-06
1.29174e-06
1.29202e-06
1.29223e-06
1.29307e-06
1.29204e-06
1.29162e-06
1.28962e-06
1.28962e-06
1.28962e-06
1.29178e-06
1.29202e-06
1.2922e-06
1.29326e-06
1.29308e-06
1.29212e-06
1.2921e-06
1.29206e-06
1.29208e-06
1.29213e-06
1.29223e-06
1.29326e-06
1.29317e-06
1.29324e-06
1.29321e-06
1.29322e-06
1.29326e-06
1.28102e-06
1.27981e-06
1.27973e-06
1.27978e-06
1.28093e-06
1.28104e-06
1.28108e-06
1.27998e-06
1.27941e-06
1.27754e-06
1.27754e-06
1.27754e-06
1.27954e-06
1.27995e-06
1.28098e-06
1.27998e-06
1.27938e-06
1.27754e-06
1.27754e-06
1.27754e-06
1.27754e-06
1.27754e-06
1.27951e-06
1.27995e-06
1.28099e-06
1.28102e-06
1.27941e-06
1.27754e-06
1.27754e-06
1.27754e-06
1.27754e-06
1.27754e-06
1.27754e-06
1.27754e-06
1.27953e-06
1.28004e-06
1.28108e-06
1.27981e-06
1.27754e-06
1.27754e-06
1.27754e-06
1.27754e-06
1.27754e-06
1.27754e-06
1.27754e-06
1.27754e-06
1.27754e-06
1.28001e-06
1.28115e-06
1.27973e-06
1.27754e-06
1.27754e-06
1.27754e-06
1.27754e-06
1.27754e-06
1.27754e-06
1.27754e-06
1.27754e-06
1.27754e-06
1.27997e-06
1.28113e-06
1.27978e-06
1.27754e-06
1.27754e-06
1.27754e-06
1.27754e-06
1.27754e-06
1.27754e-06
1.27754e-06
1.27754e-06
1.27754e-06
1.27999e-06
1.28113e-06
1.28093e-06
1.27954e-06
1.27754e-06
1.27754e-06
1.27754e-06
1.27754e-06
1.27754e-06
1.27754e-06
1.27754e-06
1.27969e-06
1.28005e-06
1.28118e-06
1.28104e-06
1.27995e-06
1.27951e-06
1.27754e-06
1.27754e-06
1.27754e-06
1.27754e-06
1.27754e-06
1.27965e-06
1.27993e-06
1.28014e-06
1.28098e-06
1.27995e-06
1.27953e-06
1.27754e-06
1.27754e-06
1.27754e-06
1.27969e-06
1.27993e-06
1.28011e-06
1.28117e-06
1.28099e-06
1.28004e-06
1.28001e-06
1.27997e-06
1.27999e-06
1.28005e-06
1.28014e-06
1.28117e-06
1.28108e-06
1.28115e-06
1.28113e-06
1.28113e-06
1.28118e-06
1.26893e-06
1.26772e-06
1.26764e-06
1.26769e-06
1.26884e-06
1.26895e-06
1.26899e-06
1.26789e-06
1.26733e-06
1.26545e-06
1.26545e-06
1.26545e-06
1.26745e-06
1.26787e-06
1.26889e-06
1.26789e-06
1.2673e-06
1.26545e-06
1.26545e-06
1.26545e-06
1.26545e-06
1.26545e-06
1.26742e-06
1.26786e-06
1.2689e-06
1.26893e-06
1.26733e-06
1.26545e-06
1.26545e-06
1.26545e-06
1.26545e-06
1.26545e-06
1.26545e-06
1.26545e-06
1.26744e-06
1.26795e-06
1.26899e-06
1.26772e-06
1.26545e-06
1.26545e-06
1.26545e-06
1.26545e-06
1.26545e-06
1.26545e-06
1.26545e-06
1.26545e-06
1.26545e-06
1.26792e-06
1.26907e-06
1.26764e-06
1.26545e-06
1.26545e-06
1.26545e-06
1.26545e-06
1.26545e-06
1.26545e-06
1.26545e-06
1.26545e-06
1.26545e-06
1.26789e-06
1.26904e-06
1.26769e-06
1.26545e-06
1.26545e-06
1.26545e-06
1.26545e-06
1.26545e-06
1.26545e-06
1.26545e-06
1.26545e-06
1.26545e-06
1.2679e-06
1.26904e-06
1.26884e-06
1.26745e-06
1.26545e-06
1.26545e-06
1.26545e-06
1.26545e-06
1.26545e-06
1.26545e-06
1.26545e-06
1.2676e-06
1.26796e-06
1.26909e-06
1.26895e-06
1.26787e-06
1.26742e-06
1.26545e-06
1.26545e-06
1.26545e-06
1.26545e-06
1.26545e-06
1.26756e-06
1.26784e-06
1.26805e-06
1.26889e-06
1.26786e-06
1.26744e-06
1.26545e-06
1.26545e-06
1.26545e-06
1.2676e-06
1.26784e-06
1.26802e-06
1.26908e-06
1.2689e-06
1.26795e-06
1.26792e-06
1.26789e-06
1.2679e-06
1.26796e-06
1.26805e-06
1.26908e-06
1.26899e-06
1.26907e-06
1.26904e-06
1.26904e-06
1.26909e-06
1.25684e-06
1.25564e-06
1.25555e-06
1.2556e-06
1.25675e-06
1.25686e-06
1.2569e-06
1.2558e-06
1.25524e-06
1.25336e-06
1.25336e-06
1.25336e-06
1.25536e-06
1.25578e-06
1.2568e-06
1.2558e-06
1.25521e-06
1.25336e-06
1.25336e-06
1.25336e-06
1.25336e-06
1.25336e-06
1.25533e-06
1.25577e-06
1.25681e-06
1.25684e-06
1.25524e-06
1.25336e-06
1.25336e-06
1.25336e-06
1.25336e-06
1.25336e-06
1.25336e-06
1.25336e-06
1.25535e-06
1.25586e-06
1.25691e-06
1.25564e-06
1.25336e-06
1.25336e-06
1.25336e-06
1.25336e-06
1.25336e-06
1.25336e-06
1.25336e-06
1.25336e-06
1.25336e-06
1.25583e-06
1.25698e-06
1.25555e-06
1.25336e-06
1.25336e-06
1.25336e-06
1.25336e-06
1.25336e-06
1.25336e-06
1.25336e-06
1.25336e-06
1.25336e-06
1.2558e-06
1.25695e-06
1.2556e-06
1.25336e-06
1.25336e-06
1.25336e-06
1.25336e-06
1.25336e-06
1.25336e-06
1.25336e-06
1.25336e-06
1.25336e-06
1.25581e-06
1.25695e-06
1.25675e-06
1.25536e-06
1.25336e-06
1.25336e-06
1.25336e-06
1.25336e-06
1.25336e-06
1.25336e-06
1.25336e-06
1.25551e-06
1.25587e-06
1.257e-06
1.25686e-06
1.25578e-06
1.25533e-06
1.25336e-06
1.25336e-06
1.25336e-06
1.25336e-06
1.25336e-06
1.25547e-06
1.25576e-06
1.25596e-06
1.2568e-06
1.25577e-06
1.25535e-06
1.25336e-06
1.25336e-06
1.25336e-06
1.25551e-06
1.25576e-06
1.25593e-06
1.257e-06
1.25681e-06
1.25586e-06
1.25583e-06
1.2558e-06
1.25581e-06
1.25587e-06
1.25596e-06
1.257e-06
1.25691e-06
1.25698e-06
1.25695e-06
1.25695e-06
1.257e-06
1.24475e-06
1.24355e-06
1.24346e-06
1.24351e-06
1.24466e-06
1.24477e-06
1.24481e-06
1.24371e-06
1.24315e-06
1.24127e-06
1.24127e-06
1.24127e-06
1.24327e-06
1.24369e-06
1.24471e-06
1.24372e-06
1.24312e-06
1.24127e-06
1.24127e-06
1.24127e-06
1.24127e-06
1.24127e-06
1.24324e-06
1.24368e-06
1.24472e-06
1.24475e-06
1.24315e-06
1.24127e-06
1.24127e-06
1.24127e-06
1.24127e-06
1.24127e-06
1.24127e-06
1.24127e-06
1.24327e-06
1.24377e-06
1.24482e-06
1.24355e-06
1.24127e-06
1.24127e-06
1.24127e-06
1.24127e-06
1.24127e-06
1.24127e-06
1.24127e-06
1.24127e-06
1.24127e-06
1.24374e-06
1.24489e-06
1.24346e-06
1.24127e-06
1.24127e-06
1.24127e-06
1.24127e-06
1.24127e-06
1.24127e-06
1.24127e-06
1.24127e-06
1.24127e-06
1.24371e-06
1.24486e-06
1.24351e-06
1.24127e-06
1.24127e-06
1.24127e-06
1.24127e-06
1.24127e-06
1.24127e-06
1.24127e-06
1.24127e-06
1.24127e-06
1.24372e-06
1.24486e-06
1.24466e-06
1.24327e-06
1.24127e-06
1.24127e-06
1.24127e-06
1.24127e-06
1.24127e-06
1.24127e-06
1.24127e-06
1.24342e-06
1.24378e-06
1.24491e-06
1.24477e-06
1.24369e-06
1.24324e-06
1.24127e-06
1.24127e-06
1.24127e-06
1.24127e-06
1.24127e-06
1.24338e-06
1.24367e-06
1.24387e-06
1.24471e-06
1.24368e-06
1.24327e-06
1.24127e-06
1.24127e-06
1.24127e-06
1.24342e-06
1.24367e-06
1.24384e-06
1.24491e-06
1.24472e-06
1.24377e-06
1.24374e-06
1.24371e-06
1.24372e-06
1.24378e-06
1.24387e-06
1.24491e-06
1.24482e-06
1.24489e-06
1.24486e-06
1.24486e-06
1.24491e-06
1.23266e-06
1.23146e-06
1.23137e-06
1.23143e-06
1.23258e-06
1.23269e-06
1.23273e-06
1.23163e-06
1.23106e-06
1.22918e-06
1.22918e-06
1.22918e-06
1.23118e-06
1.2316e-06
1.23262e-06
1.23163e-06
1.23103e-06
1.22918e-06
1.22918e-06
1.22918e-06
1.22918e-06
1.22918e-06
1.23115e-06
1.23159e-06
1.23263e-06
1.23266e-06
1.23106e-06
1.22918e-06
1.22918e-06
1.22918e-06
1.22918e-06
1.22918e-06
1.22918e-06
1.22918e-06
1.23118e-06
1.23168e-06
1.23273e-06
1.23146e-06
1.22918e-06
1.22918e-06
1.22918e-06
1.22918e-06
1.22918e-06
1.22918e-06
1.22918e-06
1.22918e-06
1.22918e-06
1.23165e-06
1.2328e-06
1.23137e-06
1.22918e-06
1.22918e-06
1.22918e-06
1.22918e-06
1.22918e-06
1.22918e-06
1.22918e-06
1.22918e-06
1.22918e-06
1.23162e-06
1.23277e-06
1.23143e-06
1.22918e-06
1.22918e-06
1.22918e-06
1.22918e-06
1.22918e-06
1.22918e-06
1.22918e-06
1.22918e-06
1.22918e-06
1.23163e-06
1.23277e-06
1.23258e-06
1.23118e-06
1.22918e-06
1.22918e-06
1.22918e-06
1.22918e-06
1.22918e-06
1.22918e-06
1.22918e-06
1.23133e-06
1.23169e-06
1.23282e-06
1.23269e-06
1.2316e-06
1.23115e-06
1.22918e-06
1.22918e-06
1.22918e-06
1.22918e-06
1.22918e-06
1.2313e-06
1.23158e-06
1.23178e-06
1.23262e-06
1.23159e-06
1.23118e-06
1.22918e-06
1.22918e-06
1.22918e-06
1.23133e-06
1.23158e-06
1.23175e-06
1.23282e-06
1.23263e-06
1.23168e-06
1.23165e-06
1.23162e-06
1.23163e-06
1.23169e-06
1.23178e-06
1.23282e-06
1.23273e-06
1.2328e-06
1.23277e-06
1.23277e-06
1.23282e-06
1.22058e-06
1.21937e-06
1.21929e-06
1.21934e-06
1.22049e-06
1.2206e-06
1.22064e-06
1.21954e-06
1.21897e-06
1.21709e-06
1.21709e-06
1.21709e-06
1.2191e-06
1.21951e-06
1.22054e-06
1.21954e-06
1.21894e-06
1.21709e-06
1.21709e-06
1.21709e-06
1.21709e-06
1.21709e-06
1.21906e-06
1.2195e-06
1.22054e-06
1.22057e-06
1.21897e-06
1.21709e-06
1.21709e-06
1.21709e-06
1.21709e-06
1.21709e-06
1.21709e-06
1.21709e-06
1.21909e-06
1.21959e-06
1.22064e-06
1.21937e-06
1.21709e-06
1.21709e-06
1.21709e-06
1.21709e-06
1.21709e-06
1.21709e-06
1.21709e-06
1.21709e-06
1.21709e-06
1.21956e-06
1.22071e-06
1.21929e-06
1.21709e-06
1.21709e-06
1.21709e-06
1.21709e-06
1.21709e-06
1.21709e-06
1.21709e-06
1.21709e-06
1.21709e-06
1.21953e-06
1.22068e-06
1.21934e-06
1.21709e-06
1.21709e-06
1.21709e-06
1.21709e-06
1.21709e-06
1.21709e-06
1.21709e-06
1.21709e-06
1.21709e-06
1.21955e-06
1.22068e-06
1.22049e-06
1.2191e-06
1.21709e-06
1.21709e-06
1.21709e-06
1.21709e-06
1.21709e-06
1.21709e-06
1.21709e-06
1.21925e-06
1.2196e-06
1.22073e-06
1.2206e-06
1.21951e-06
1.21906e-06
1.21709e-06
1.21709e-06
1.21709e-06
1.21709e-06
1.21709e-06
1.21921e-06
1.21949e-06
1.21969e-06
1.22054e-06
1.2195e-06
1.21909e-06
1.21709e-06
1.21709e-06
1.21709e-06
1.21925e-06
1.21949e-06
1.21967e-06
1.22073e-06
1.22054e-06
1.21959e-06
1.21956e-06
1.21953e-06
1.21955e-06
1.2196e-06
1.21969e-06
1.22073e-06
1.22064e-06
1.22071e-06
1.22068e-06
1.22068e-06
1.22073e-06
1.20849e-06
1.20728e-06
1.2072e-06
1.20725e-06
1.2084e-06
1.20851e-06
1.20855e-06
1.20745e-06
1.20688e-06
1.205e-06
1.205e-06
1.205e-06
1.20701e-06
1.20742e-06
1.20845e-06
1.20745e-06
1.20685e-06
1.205e-06
1.205e-06
1.205e-06
1.205e-06
1.205e-06
1.20698e-06
1.20742e-06
1.20845e-06
1.20849e-06
1.20688e-06
1.205e-06
1.205e-06
1.205e-06
1.205e-06
1.205e-06
1.205e-06
1.205e-06
1.207e-06
1.2075e-06
1.20855e-06
1.20728e-06
1.205e-06
1.205e-06
1.205e-06
1.205e-06
1.205e-06
1.205e-06
1.205e-06
1.205e-06
1.205e-06
1.20748e-06
1.20862e-06
1.2072e-06
1.205e-06
1.205e-06
1.205e-06
1.205e-06
1.205e-06
1.205e-06
1.205e-06
1.205e-06
1.205e-06
1.20744e-06
1.20859e-06
1.20725e-06
1.205e-06
1.205e-06
1.205e-06
1.205e-06
1.205e-06
1.205e-06
1.205e-06
1.205e-06
1.205e-06
1.20746e-06
1.2086e-06
1.2084e-06
1.20701e-06
1.205e-06
1.205e-06
1.205e-06
1.205e-06
1.205e-06
1.205e-06
1.205e-06
1.20716e-06
1.20751e-06
1.20864e-06
1.20851e-06
1.20742e-06
1.20698e-06
1.205e-06
1.205e-06
1.205e-06
1.205e-06
1.205e-06
1.20712e-06
1.2074e-06
1.20761e-06
1.20845e-06
1.20742e-06
1.207e-06
1.205e-06
1.205e-06
1.205e-06
1.20716e-06
1.2074e-06
1.20758e-06
1.20864e-06
1.20845e-06
1.2075e-06
1.20748e-06
1.20744e-06
1.20746e-06
1.20751e-06
1.20761e-06
1.20864e-06
1.20855e-06
1.20862e-06
1.20859e-06
1.2086e-06
1.20864e-06
1.1964e-06
1.19519e-06
1.19511e-06
1.19516e-06
1.19631e-06
1.19642e-06
1.19646e-06
1.19536e-06
1.19479e-06
1.19291e-06
1.19291e-06
1.19291e-06
1.19492e-06
1.19533e-06
1.19636e-06
1.19536e-06
1.19476e-06
1.19291e-06
1.19291e-06
1.19291e-06
1.19291e-06
1.19291e-06
1.19489e-06
1.19533e-06
1.19636e-06
1.1964e-06
1.19479e-06
1.19291e-06
1.19291e-06
1.19291e-06
1.19291e-06
1.19291e-06
1.19291e-06
1.19291e-06
1.19491e-06
1.19541e-06
1.19646e-06
1.19519e-06
1.19291e-06
1.19291e-06
1.19291e-06
1.19291e-06
1.19291e-06
1.19291e-06
1.19291e-06
1.19291e-06
1.19291e-06
1.19539e-06
1.19653e-06
1.19511e-06
1.19291e-06
1.19291e-06
1.19291e-06
1.19291e-06
1.19291e-06
1.19291e-06
1.19291e-06
1.19291e-06
1.19291e-06
1.19535e-06
1.1965e-06
1.19516e-06
1.19291e-06
1.19291e-06
1.19291e-06
1.19291e-06
1.19291e-06
1.19291e-06
1.19291e-06
1.19291e-06
1.19291e-06
1.19537e-06
1.19651e-06
1.19631e-06
1.19492e-06
1.19291e-06
1.19291e-06