/*--------------------------------*- C++ -*----------------------------------*\
| =========                 |                                                 |
| \\      /  F ield         | OpenFOAM: The Open Source CFD Toolbox           |
|  \\    /   O peration     | Version:  v2012                                 |
|   \\  /    A nd           | Website:  www.openfoam.com                      |
|    \\/     M anipulation  |                                                 |
\*---------------------------------------------------------------------------*/
FoamFile
{
    version     2.0;
    format      ascii;
    class       volScalarField;
    location    "38";
    object      p;
}
// * * * * * * * * * * * * * * * * * * * * * * * * * * * * * * * * * * * * * //

dimensions      [0 2 -2 0 0 0 0];


internalField   nonuniform List<scalar> 
292667
(
1.31761e-06
1.30762e-06
1.30679e-06
1.30687e-06
1.30803e-06
1.31856e-06
1.30784e-06
1.30488e-06
1.30316e-06
1.30246e-06
1.30255e-06
1.30347e-06
1.30545e-06
1.3087e-06
1.30784e-06
1.30401e-06
1.30165e-06
1.30035e-06
1.2998e-06
1.29988e-06
1.30059e-06
1.3021e-06
1.30477e-06
1.30896e-06
1.31761e-06
1.30488e-06
1.30165e-06
1.29974e-06
1.29867e-06
1.29822e-06
1.29828e-06
1.29887e-06
1.30011e-06
1.30228e-06
1.30592e-06
1.31744e-06
1.30762e-06
1.30316e-06
1.30035e-06
1.29867e-06
1.29772e-06
1.29731e-06
1.29737e-06
1.2979e-06
1.29901e-06
1.30092e-06
1.30411e-06
1.31164e-06
1.30679e-06
1.30246e-06
1.2998e-06
1.29822e-06
1.29731e-06
1.29692e-06
1.29697e-06
1.29749e-06
1.29854e-06
1.30034e-06
1.30337e-06
1.3098e-06
1.30687e-06
1.30255e-06
1.29988e-06
1.29828e-06
1.29737e-06
1.29697e-06
1.29703e-06
1.29754e-06
1.2986e-06
1.30042e-06
1.30347e-06
1.31014e-06
1.30803e-06
1.30347e-06
1.30059e-06
1.29887e-06
1.2979e-06
1.29749e-06
1.29754e-06
1.29809e-06
1.29922e-06
1.30118e-06
1.30446e-06
1.31198e-06
1.31856e-06
1.30545e-06
1.3021e-06
1.30011e-06
1.29901e-06
1.29854e-06
1.2986e-06
1.29922e-06
1.30051e-06
1.30278e-06
1.30655e-06
1.31742e-06
1.3087e-06
1.30477e-06
1.30228e-06
1.30092e-06
1.30034e-06
1.30042e-06
1.30118e-06
1.30279e-06
1.30562e-06
1.31255e-06
1.30896e-06
1.30592e-06
1.30411e-06
1.30337e-06
1.30347e-06
1.30446e-06
1.30655e-06
1.31255e-06
1.31744e-06
1.31164e-06
1.3098e-06
1.31014e-06
1.31198e-06
1.31742e-06
1.28885e-06
1.28781e-06
1.28778e-06
1.28781e-06
1.28877e-06
1.28871e-06
1.28892e-06
1.28809e-06
1.28767e-06
1.28606e-06
1.28604e-06
1.28606e-06
1.28782e-06
1.28809e-06
1.2889e-06
1.28809e-06
1.28768e-06
1.28611e-06
1.28603e-06
1.28609e-06
1.28603e-06
1.28611e-06
1.28779e-06
1.28807e-06
1.28887e-06
1.28885e-06
1.28767e-06
1.28611e-06
1.28604e-06
1.28608e-06
1.28607e-06
1.28608e-06
1.28604e-06
1.28611e-06
1.28777e-06
1.28809e-06
1.28896e-06
1.28781e-06
1.28606e-06
1.28603e-06
1.28608e-06
1.28604e-06
1.28604e-06
1.28604e-06
1.28608e-06
1.28603e-06
1.28606e-06
1.2882e-06
1.28905e-06
1.28778e-06
1.28604e-06
1.28609e-06
1.28607e-06
1.28604e-06
1.28604e-06
1.28604e-06
1.28607e-06
1.28609e-06
1.28604e-06
1.2882e-06
1.2889e-06
1.28781e-06
1.28606e-06
1.28603e-06
1.28608e-06
1.28604e-06
1.28604e-06
1.28604e-06
1.28608e-06
1.28603e-06
1.28606e-06
1.28821e-06
1.28894e-06
1.28877e-06
1.28782e-06
1.28611e-06
1.28604e-06
1.28608e-06
1.28607e-06
1.28608e-06
1.28604e-06
1.28611e-06
1.28792e-06
1.28812e-06
1.28903e-06
1.28871e-06
1.28809e-06
1.28779e-06
1.28611e-06
1.28603e-06
1.28609e-06
1.28603e-06
1.28611e-06
1.28788e-06
1.28808e-06
1.28814e-06
1.2889e-06
1.28807e-06
1.28777e-06
1.28606e-06
1.28604e-06
1.28606e-06
1.28792e-06
1.28808e-06
1.28821e-06
1.28902e-06
1.28887e-06
1.28809e-06
1.2882e-06
1.2882e-06
1.28821e-06
1.28812e-06
1.28814e-06
1.28902e-06
1.28896e-06
1.28905e-06
1.28891e-06
1.28895e-06
1.28903e-06
1.27787e-06
1.27686e-06
1.27679e-06
1.27683e-06
1.27782e-06
1.2779e-06
1.27792e-06
1.27702e-06
1.27654e-06
1.27495e-06
1.27494e-06
1.27495e-06
1.27668e-06
1.27702e-06
1.27786e-06
1.27702e-06
1.27653e-06
1.275e-06
1.275e-06
1.27504e-06
1.275e-06
1.275e-06
1.27668e-06
1.27702e-06
1.27786e-06
1.27787e-06
1.27654e-06
1.275e-06
1.27501e-06
1.27507e-06
1.27507e-06
1.27507e-06
1.27501e-06
1.275e-06
1.27668e-06
1.27707e-06
1.27793e-06
1.27686e-06
1.27495e-06
1.275e-06
1.27507e-06
1.27509e-06
1.27511e-06
1.27509e-06
1.27507e-06
1.275e-06
1.27495e-06
1.2771e-06
1.27803e-06
1.27679e-06
1.27494e-06
1.27504e-06
1.27507e-06
1.27511e-06
1.27511e-06
1.27511e-06
1.27507e-06
1.27504e-06
1.27494e-06
1.27709e-06
1.27803e-06
1.27683e-06
1.27495e-06
1.275e-06
1.27507e-06
1.27509e-06
1.27511e-06
1.27509e-06
1.27507e-06
1.275e-06
1.27495e-06
1.27709e-06
1.27803e-06
1.27782e-06
1.27668e-06
1.275e-06
1.27501e-06
1.27507e-06
1.27507e-06
1.27507e-06
1.27501e-06
1.275e-06
1.27685e-06
1.2771e-06
1.27804e-06
1.2779e-06
1.27702e-06
1.27668e-06
1.275e-06
1.275e-06
1.27504e-06
1.275e-06
1.275e-06
1.27682e-06
1.27702e-06
1.27715e-06
1.27786e-06
1.27702e-06
1.27668e-06
1.27495e-06
1.27494e-06
1.27495e-06
1.27685e-06
1.27702e-06
1.27713e-06
1.27803e-06
1.27786e-06
1.27707e-06
1.2771e-06
1.27709e-06
1.27709e-06
1.2771e-06
1.27715e-06
1.27803e-06
1.27793e-06
1.27803e-06
1.27803e-06
1.27803e-06
1.27804e-06
1.26695e-06
1.26593e-06
1.26585e-06
1.2659e-06
1.2669e-06
1.26698e-06
1.267e-06
1.26607e-06
1.26557e-06
1.26397e-06
1.26396e-06
1.26397e-06
1.26571e-06
1.26607e-06
1.26694e-06
1.26607e-06
1.26555e-06
1.26399e-06
1.264e-06
1.26403e-06
1.264e-06
1.26399e-06
1.2657e-06
1.26607e-06
1.26694e-06
1.26695e-06
1.26557e-06
1.26399e-06
1.26402e-06
1.26406e-06
1.26406e-06
1.26406e-06
1.26402e-06
1.26399e-06
1.26571e-06
1.26614e-06
1.26701e-06
1.26593e-06
1.26397e-06
1.264e-06
1.26406e-06
1.26408e-06
1.26409e-06
1.26408e-06
1.26406e-06
1.264e-06
1.26397e-06
1.26615e-06
1.26711e-06
1.26585e-06
1.26396e-06
1.26403e-06
1.26406e-06
1.26409e-06
1.2641e-06
1.26409e-06
1.26406e-06
1.26403e-06
1.26396e-06
1.26614e-06
1.26711e-06
1.2659e-06
1.26397e-06
1.264e-06
1.26406e-06
1.26408e-06
1.26409e-06
1.26408e-06
1.26406e-06
1.264e-06
1.26397e-06
1.26614e-06
1.26711e-06
1.2669e-06
1.26571e-06
1.26399e-06
1.26402e-06
1.26406e-06
1.26406e-06
1.26406e-06
1.26402e-06
1.26399e-06
1.26589e-06
1.26617e-06
1.26713e-06
1.26698e-06
1.26607e-06
1.2657e-06
1.26399e-06
1.264e-06
1.26403e-06
1.264e-06
1.26399e-06
1.26586e-06
1.26608e-06
1.26623e-06
1.26694e-06
1.26607e-06
1.26571e-06
1.26397e-06
1.26396e-06
1.26397e-06
1.26589e-06
1.26608e-06
1.26621e-06
1.26711e-06
1.26694e-06
1.26614e-06
1.26615e-06
1.26613e-06
1.26614e-06
1.26617e-06
1.26623e-06
1.26711e-06
1.26701e-06
1.26711e-06
1.26711e-06
1.26711e-06
1.26713e-06
1.25603e-06
1.255e-06
1.25492e-06
1.25497e-06
1.25598e-06
1.25606e-06
1.25608e-06
1.25514e-06
1.25463e-06
1.25302e-06
1.25302e-06
1.25302e-06
1.25477e-06
1.25514e-06
1.25602e-06
1.25514e-06
1.2546e-06
1.25303e-06
1.25304e-06
1.25305e-06
1.25304e-06
1.25303e-06
1.25475e-06
1.25513e-06
1.25602e-06
1.25603e-06
1.25463e-06
1.25303e-06
1.25305e-06
1.25307e-06
1.25308e-06
1.25307e-06
1.25305e-06
1.25303e-06
1.25477e-06
1.25522e-06
1.25609e-06
1.255e-06
1.25302e-06
1.25304e-06
1.25307e-06
1.25309e-06
1.2531e-06
1.25309e-06
1.25307e-06
1.25304e-06
1.25302e-06
1.25522e-06
1.25619e-06
1.25492e-06
1.25302e-06
1.25305e-06
1.25308e-06
1.2531e-06
1.2531e-06
1.2531e-06
1.25308e-06
1.25305e-06
1.25302e-06
1.2552e-06
1.25618e-06
1.25497e-06
1.25302e-06
1.25304e-06
1.25307e-06
1.25309e-06
1.2531e-06
1.25309e-06
1.25307e-06
1.25304e-06
1.25302e-06
1.25521e-06
1.25618e-06
1.25598e-06
1.25477e-06
1.25303e-06
1.25305e-06
1.25307e-06
1.25308e-06
1.25307e-06
1.25305e-06
1.25303e-06
1.25495e-06
1.25524e-06
1.2562e-06
1.25606e-06
1.25514e-06
1.25475e-06
1.25303e-06
1.25304e-06
1.25305e-06
1.25304e-06
1.25303e-06
1.25492e-06
1.25515e-06
1.25531e-06
1.25602e-06
1.25513e-06
1.25477e-06
1.25302e-06
1.25302e-06
1.25302e-06
1.25495e-06
1.25515e-06
1.25529e-06
1.25619e-06
1.25602e-06
1.25522e-06
1.25522e-06
1.2552e-06
1.25521e-06
1.25524e-06
1.25531e-06
1.25619e-06
1.25609e-06
1.25619e-06
1.25618e-06
1.25618e-06
1.2562e-06
1.2451e-06
1.24407e-06
1.244e-06
1.24405e-06
1.24505e-06
1.24513e-06
1.24515e-06
1.24422e-06
1.2437e-06
1.24208e-06
1.24208e-06
1.24208e-06
1.24384e-06
1.24421e-06
1.24509e-06
1.24422e-06
1.24367e-06
1.24209e-06
1.24209e-06
1.2421e-06
1.24209e-06
1.24209e-06
1.24381e-06
1.24421e-06
1.2451e-06
1.24511e-06
1.2437e-06
1.24209e-06
1.2421e-06
1.24211e-06
1.24211e-06
1.24211e-06
1.2421e-06
1.24209e-06
1.24384e-06
1.24429e-06
1.24516e-06
1.24407e-06
1.24208e-06
1.24209e-06
1.24211e-06
1.24212e-06
1.24213e-06
1.24212e-06
1.24211e-06
1.24209e-06
1.24208e-06
1.2443e-06
1.24527e-06
1.244e-06
1.24208e-06
1.2421e-06
1.24211e-06
1.24213e-06
1.24213e-06
1.24213e-06
1.24211e-06
1.2421e-06
1.24208e-06
1.24427e-06
1.24526e-06
1.24405e-06
1.24208e-06
1.24209e-06
1.24211e-06
1.24212e-06
1.24213e-06
1.24212e-06
1.24211e-06
1.24209e-06
1.24208e-06
1.24428e-06
1.24526e-06
1.24505e-06
1.24384e-06
1.24209e-06
1.2421e-06
1.24211e-06
1.24211e-06
1.24211e-06
1.2421e-06
1.24209e-06
1.24402e-06
1.24431e-06
1.24528e-06
1.24513e-06
1.24421e-06
1.24381e-06
1.24209e-06
1.24209e-06
1.2421e-06
1.24209e-06
1.24209e-06
1.24399e-06
1.24422e-06
1.24439e-06
1.24509e-06
1.24421e-06
1.24384e-06
1.24208e-06
1.24208e-06
1.24208e-06
1.24402e-06
1.24422e-06
1.24436e-06
1.24527e-06
1.2451e-06
1.24429e-06
1.2443e-06
1.24427e-06
1.24428e-06
1.24431e-06
1.24439e-06
1.24527e-06
1.24516e-06
1.24527e-06
1.24526e-06
1.24526e-06
1.24528e-06
1.23418e-06
1.23314e-06
1.23307e-06
1.23312e-06
1.23413e-06
1.23421e-06
1.23422e-06
1.23329e-06
1.23277e-06
1.23115e-06
1.23115e-06
1.23115e-06
1.23291e-06
1.23328e-06
1.23417e-06
1.23329e-06
1.23274e-06
1.23115e-06
1.23116e-06
1.23116e-06
1.23116e-06
1.23115e-06
1.23288e-06
1.23328e-06
1.23417e-06
1.23418e-06
1.23277e-06
1.23115e-06
1.23116e-06
1.23117e-06
1.23117e-06
1.23117e-06
1.23116e-06
1.23115e-06
1.23291e-06
1.23336e-06
1.23424e-06
1.23314e-06
1.23115e-06
1.23116e-06
1.23117e-06
1.23117e-06
1.23118e-06
1.23117e-06
1.23117e-06
1.23116e-06
1.23115e-06
1.23337e-06
1.23434e-06
1.23307e-06
1.23115e-06
1.23116e-06
1.23117e-06
1.23118e-06
1.23118e-06
1.23118e-06
1.23117e-06
1.23116e-06
1.23115e-06
1.23334e-06
1.23433e-06
1.23312e-06
1.23115e-06
1.23116e-06
1.23117e-06
1.23117e-06
1.23118e-06
1.23117e-06
1.23117e-06
1.23116e-06
1.23115e-06
1.23335e-06
1.23433e-06
1.23413e-06
1.23291e-06
1.23115e-06
1.23116e-06
1.23117e-06
1.23117e-06
1.23117e-06
1.23116e-06
1.23115e-06
1.23309e-06
1.23339e-06
1.23435e-06
1.23421e-06
1.23328e-06
1.23288e-06
1.23115e-06
1.23116e-06
1.23116e-06
1.23116e-06
1.23115e-06
1.23306e-06
1.23329e-06
1.23346e-06
1.23417e-06
1.23328e-06
1.23291e-06
1.23115e-06
1.23115e-06
1.23115e-06
1.23309e-06
1.23329e-06
1.23344e-06
1.23434e-06
1.23417e-06
1.23336e-06
1.23337e-06
1.23334e-06
1.23335e-06
1.23339e-06
1.23346e-06
1.23434e-06
1.23424e-06
1.23434e-06
1.23433e-06
1.23433e-06
1.23435e-06
1.22325e-06
1.22222e-06
1.22214e-06
1.22219e-06
1.2232e-06
1.22328e-06
1.2233e-06
1.22236e-06
1.22184e-06
1.22022e-06
1.22022e-06
1.22022e-06
1.22198e-06
1.22235e-06
1.22324e-06
1.22236e-06
1.22181e-06
1.22022e-06
1.22022e-06
1.22022e-06
1.22022e-06
1.22022e-06
1.22196e-06
1.22235e-06
1.22324e-06
1.22325e-06
1.22184e-06
1.22022e-06
1.22023e-06
1.22023e-06
1.22023e-06
1.22023e-06
1.22023e-06
1.22022e-06
1.22198e-06
1.22243e-06
1.22331e-06
1.22222e-06
1.22022e-06
1.22022e-06
1.22023e-06
1.22023e-06
1.22023e-06
1.22023e-06
1.22023e-06
1.22022e-06
1.22022e-06
1.22244e-06
1.22341e-06
1.22214e-06
1.22022e-06
1.22022e-06
1.22023e-06
1.22023e-06
1.22024e-06
1.22023e-06
1.22023e-06
1.22022e-06
1.22022e-06
1.22242e-06
1.2234e-06
1.22219e-06
1.22022e-06
1.22022e-06
1.22023e-06
1.22023e-06
1.22023e-06
1.22023e-06
1.22023e-06
1.22022e-06
1.22022e-06
1.22243e-06
1.2234e-06
1.2232e-06
1.22198e-06
1.22022e-06
1.22023e-06
1.22023e-06
1.22023e-06
1.22023e-06
1.22023e-06
1.22022e-06
1.22217e-06
1.22246e-06
1.22342e-06
1.22328e-06
1.22235e-06
1.22196e-06
1.22022e-06
1.22022e-06
1.22022e-06
1.22022e-06
1.22022e-06
1.22213e-06
1.22237e-06
1.22253e-06
1.22324e-06
1.22235e-06
1.22198e-06
1.22022e-06
1.22022e-06
1.22022e-06
1.22217e-06
1.22237e-06
1.22251e-06
1.22341e-06
1.22324e-06
1.22243e-06
1.22244e-06
1.22242e-06
1.22243e-06
1.22246e-06
1.22253e-06
1.22341e-06
1.22331e-06
1.22341e-06
1.2234e-06
1.2234e-06
1.22342e-06
1.21232e-06
1.21129e-06
1.21121e-06
1.21126e-06
1.21227e-06
1.21235e-06
1.21237e-06
1.21143e-06
1.21091e-06
1.20929e-06
1.20929e-06
1.20929e-06
1.21105e-06
1.21143e-06
1.21231e-06
1.21143e-06
1.21088e-06
1.20929e-06
1.20929e-06
1.20929e-06
1.20929e-06
1.20929e-06
1.21103e-06
1.21142e-06
1.21232e-06
1.21232e-06
1.21091e-06
1.20929e-06
1.20929e-06
1.2093e-06
1.2093e-06
1.2093e-06
1.20929e-06
1.20929e-06
1.21105e-06
1.21151e-06
1.21238e-06
1.21129e-06
1.20929e-06
1.20929e-06
1.2093e-06
1.2093e-06
1.2093e-06
1.2093e-06
1.2093e-06
1.20929e-06
1.20929e-06
1.21151e-06
1.21249e-06
1.21121e-06
1.20929e-06
1.20929e-06
1.2093e-06
1.2093e-06
1.2093e-06
1.2093e-06
1.2093e-06
1.20929e-06
1.20929e-06
1.21149e-06
1.21248e-06
1.21126e-06
1.20929e-06
1.20929e-06
1.2093e-06
1.2093e-06
1.2093e-06
1.2093e-06
1.2093e-06
1.20929e-06
1.20929e-06
1.2115e-06
1.21248e-06
1.21227e-06
1.21105e-06
1.20929e-06
1.20929e-06
1.2093e-06
1.2093e-06
1.2093e-06
1.20929e-06
1.20929e-06
1.21124e-06
1.21153e-06
1.2125e-06
1.21235e-06
1.21143e-06
1.21103e-06
1.20929e-06
1.20929e-06
1.20929e-06
1.20929e-06
1.20929e-06
1.2112e-06
1.21144e-06
1.21161e-06
1.21231e-06
1.21142e-06
1.21105e-06
1.20929e-06
1.20929e-06
1.20929e-06
1.21124e-06
1.21144e-06
1.21158e-06
1.21249e-06
1.21232e-06
1.21151e-06
1.21151e-06
1.21149e-06
1.2115e-06
1.21153e-06
1.21161e-06
1.21249e-06
1.21238e-06
1.21249e-06
1.21248e-06
1.21248e-06
1.2125e-06
1.2014e-06
1.20036e-06
1.20028e-06
1.20033e-06
1.20134e-06
1.20142e-06
1.20144e-06
1.20051e-06
1.19998e-06
1.19836e-06
1.19836e-06
1.19836e-06
1.20012e-06
1.2005e-06
1.20138e-06
1.20051e-06
1.19995e-06
1.19836e-06
1.19836e-06
1.19836e-06
1.19836e-06
1.19836e-06
1.2001e-06
1.20049e-06
1.20139e-06
1.2014e-06
1.19998e-06
1.19836e-06
1.19836e-06
1.19836e-06
1.19837e-06
1.19836e-06
1.19836e-06
1.19836e-06
1.20012e-06
1.20058e-06
1.20145e-06
1.20036e-06
1.19836e-06
1.19836e-06
1.19836e-06
1.19837e-06
1.19837e-06
1.19837e-06
1.19836e-06
1.19836e-06
1.19836e-06
1.20058e-06
1.20156e-06
1.20028e-06
1.19836e-06
1.19836e-06
1.19837e-06
1.19837e-06
1.19837e-06
1.19837e-06
1.19836e-06
1.19836e-06
1.19836e-06
1.20056e-06
1.20155e-06
1.20033e-06
1.19836e-06
1.19836e-06
1.19836e-06
1.19837e-06
1.19837e-06
1.19837e-06
1.19836e-06
1.19836e-06
1.19836e-06
1.20057e-06
1.20155e-06
1.20134e-06
1.20012e-06
1.19836e-06
1.19836e-06
1.19836e-06
1.19837e-06
1.19836e-06
1.19836e-06
1.19836e-06
1.20031e-06
1.2006e-06
1.20157e-06
1.20142e-06
1.2005e-06
1.2001e-06
1.19836e-06
1.19836e-06
1.19836e-06
1.19836e-06
1.19836e-06
1.20027e-06
1.20051e-06
1.20068e-06
1.20138e-06
1.20049e-06
1.20012e-06
1.19836e-06
1.19836e-06
1.19836e-06
1.20031e-06
1.20051e-06
1.20065e-06
1.20156e-06
1.20139e-06
1.20058e-06
1.20058e-06
1.20056e-06
1.20057e-06
1.2006e-06
1.20068e-06
1.20156e-06
1.20145e-06
1.20156e-06
1.20155e-06
1.20155e-06
1.20157e-06
1.19047e-06
1.18943e-06
1.18936e-06
1.18941e-06
1.19042e-06
1.1905e-06
1.19051e-06
1.18958e-06
1.18906e-06
1.18743e-06
1.18743e-06
1.18743e-06
1.1892e-06
1.18957e-06
1.19045e-06
1.18958e-06
1.18902e-06
1.18743e-06
1.18743e-06
1.18743e-06
1.18743e-06
1.18743e-06
1.18917e-06
1.18957e-06
1.19046e-06
1.19047e-06
1.18906e-06
1.18743e-06
1.18743e-06
1.18743e-06
1.18744e-06
1.18743e-06
1.18743e-06
1.18743e-06
1.18919e-06
1.18965e-06
1.19053e-06
1.18943e-06
1.18743e-06
1.18743e-06
1.18744e-06
1.18744e-06
1.18744e-06
1.18744e-06
1.18743e-06
1.18743e-06
1.18743e-06
1.18966e-06
1.19063e-06
1.18936e-06
1.18743e-06
1.18743e-06
1.18744e-06
1.18744e-06
1.18744e-06
1.18744e-06
1.18744e-06
1.18743e-06
1.18743e-06
1.18963e-06
1.19062e-06
1.18941e-06
1.18743e-06
1.18743e-06
1.18744e-06
1.18744e-06
1.18744e-06
1.18744e-06
1.18743e-06
1.18743e-06
1.18743e-06
1.18964e-06
1.19062e-06
1.19042e-06
1.1892e-06
1.18743e-06
1.18743e-06
1.18744e-06
1.18744e-06
1.18743e-06
1.18743e-06
1.18743e-06
1.18938e-06
1.18968e-06
1.19064e-06
1.1905e-06
1.18957e-06
1.18917e-06
1.18743e-06
1.18743e-06
1.18743e-06
1.18743e-06
1.18743e-06
1.18934e-06
1.18958e-06
1.18975e-06
1.19045e-06
1.18957e-06
1.18919e-06
1.18743e-06
1.18743e-06
1.18743e-06
1.18938e-06
1.18958e-06
1.18972e-06
1.19063e-06
1.19046e-06
1.18965e-06
1.18966e-06
1.18963e-06
1.18964e-06
1.18968e-06
1.18975e-06
1.19063e-06
1.19053e-06
1.19063e-06
1.19062e-06
1.19062e-06
1.19064e-06
1.17954e-06
1.1785e-06
1.17843e-06
1.17848e-06
1.17949e-06
1.17957e-06
1.17959e-06
1.17865e-06
1.17813e-06
1.17651e-06
1.17651e-06
1.17651e-06
1.17827e-06
1.17864e-06
1.17953e-06
1.17865e-06
1.1781e-06
1.17651e-06
1.17651e-06
1.17651e-06
1.17651e-06
1.17651e-06
1.17824e-06
1.17864e-06
1.17953e-06
1.17954e-06
1.17813e-06
1.17651e-06
1.17651e-06
1.17651e-06
1.17651e-06
1.17651e-06
1.17651e-06
1.17651e-06
1.17827e-06
1.17872e-06
1.1796e-06
1.1785e-06
1.17651e-06
1.17651e-06
1.17651e-06
1.17651e-06
1.17651e-06
1.17651e-06
1.17651e-06
1.17651e-06
1.17651e-06
1.17873e-06
1.1797e-06
1.17843e-06
1.17651e-06
1.17651e-06
1.17651e-06
1.17651e-06
1.17651e-06
1.17651e-06
1.17651e-06
1.17651e-06
1.17651e-06
1.1787e-06
1.17969e-06
1.17848e-06
1.17651e-06
1.17651e-06
1.17651e-06
1.17651e-06
1.17651e-06
1.17651e-06
1.17651e-06
1.17651e-06
1.17651e-06
1.17871e-06
1.17969e-06
1.17949e-06
1.17827e-06
1.17651e-06
1.17651e-06
1.17651e-06
1.17651e-06
1.17651e-06
1.17651e-06
1.17651e-06
1.17845e-06
1.17875e-06
1.17971e-06
1.17957e-06
1.17864e-06
1.17824e-06
1.17651e-06
1.17651e-06
1.17651e-06
1.17651e-06
1.17651e-06
1.17842e-06
1.17865e-06
1.17882e-06
1.17953e-06
1.17864e-06
1.17827e-06
1.17651e-06
1.17651e-06
1.17651e-06
1.17845e-06
1.17865e-06
1.1788e-06
1.1797e-06
1.17953e-06
1.17872e-06
1.17873e-06
1.1787e-06
1.17871e-06
1.17875e-06
1.17882e-06
1.1797e-06
1.1796e-06
1.1797e-06
1.17969e-06
1.17969e-06
1.17971e-06
1.16861e-06
1.16758e-06
1.1675e-06
1.16755e-06
1.16856e-06
1.16864e-06
1.16866e-06
1.16772e-06
1.1672e-06
1.16558e-06
1.16558e-06
1.16558e-06
1.16734e-06
1.16771e-06
1.1686e-06
1.16772e-06
1.16717e-06
1.16558e-06
1.16558e-06
1.16558e-06
1.16558e-06
1.16558e-06
1.16731e-06
1.16771e-06
1.1686e-06
1.16861e-06
1.1672e-06
1.16558e-06
1.16558e-06
1.16558e-06
1.16558e-06
1.16558e-06
1.16558e-06
1.16558e-06
1.16734e-06
1.1678e-06
1.16867e-06
1.16758e-06
1.16558e-06
1.16558e-06
1.16558e-06
1.16558e-06
1.16558e-06
1.16558e-06
1.16558e-06
1.16558e-06
1.16558e-06
1.1678e-06
1.16877e-06
1.1675e-06
1.16558e-06
1.16558e-06
1.16558e-06
1.16558e-06
1.16558e-06
1.16558e-06
1.16558e-06
1.16558e-06
1.16558e-06
1.16778e-06
1.16876e-06
1.16755e-06
1.16558e-06
1.16558e-06
1.16558e-06
1.16558e-06
1.16558e-06
1.16558e-06
1.16558e-06
1.16558e-06
1.16558e-06
1.16779e-06
1.16877e-06
1.16856e-06
1.16734e-06
1.16558e-06
1.16558e-06
1.16558e-06
1.16558e-06
1.16558e-06
1.16558e-06
1.16558e-06
1.16753e-06
1.16782e-06
1.16878e-06
1.16864e-06
1.16771e-06
1.16731e-06
1.16558e-06
1.16558e-06
1.16558e-06
1.16558e-06
1.16558e-06
1.16749e-06
1.16773e-06
1.1679e-06
1.1686e-06
1.16771e-06
1.16734e-06
1.16558e-06
1.16558e-06
1.16558e-06
1.16753e-06
1.16773e-06
1.16787e-06
1.16877e-06
1.1686e-06
1.1678e-06
1.1678e-06
1.16778e-06
1.16779e-06
1.16782e-06
1.1679e-06
1.16877e-06
1.16867e-06
1.16877e-06
1.16876e-06
1.16877e-06
1.16878e-06
1.15768e-06
1.15665e-06
1.15657e-06
1.15662e-06
1.15763e-06
1.15771e-06
1.15773e-06
1.15679e-06
1.15627e-06
1.15465e-06
1.15465e-06
1.15465e-06
1.15641e-06
1.15679e-06
1.15767e-06
1.15679e-06
1.15624e-06
1.15465e-06
1.15465e-06
1.15465e-06
1.15465e-06
1.15465e-06
1.15639e-06
1.15678e-06
1.15768e-06
1.15768e-06
1.15627e-06
1.15465e-06
1.15465e-06
1.15465e-06
1.15465e-06
1.15465e-06
1.15465e-06
1.15465e-06
1.15641e-06
1.15687e-06
1.15774e-06
1.15665e-06
1.15465e-06
1.15465e-06
1.15465e-06
1.15465e-06
1.15465e-06
1.15465e-06
1.15465e-06
1.15465e-06
1.15465e-06
1.15687e-06
1.15785e-06
1.15657e-06
1.15465e-06
1.15465e-06
1.15465e-06
1.15465e-06
1.15465e-06
1.15465e-06
1.15465e-06
1.15465e-06
1.15465e-06
1.15685e-06
1.15784e-06
1.15662e-06
1.15465e-06
1.15465e-06
1.15465e-06
1.15465e-06
1.15465e-06
1.15465e-06
1.15465e-06
1.15465e-06
1.15465e-06
1.15686e-06
1.15784e-06
1.15763e-06
1.15641e-06
1.15465e-06
1.15465e-06
1.15465e-06
1.15465e-06
1.15465e-06
1.15465e-06
1.15465e-06
1.1566e-06
1.15689e-06
1.15786e-06
1.15771e-06
1.15679e-06
1.15639e-06
1.15465e-06
1.15465e-06
1.15465e-06
1.15465e-06
1.15465e-06
1.15656e-06
1.1568e-06
1.15697e-06
1.15767e-06
1.15678e-06
1.15641e-06
1.15465e-06
1.15465e-06
1.15465e-06
1.1566e-06
1.1568e-06
1.15694e-06
1.15785e-06
1.15768e-06
1.15687e-06
1.15687e-06
1.15685e-06
1.15686e-06
1.15689e-06
1.15697e-06
1.15785e-06
1.15774e-06
1.15785e-06
1.15784e-06
1.15784e-06
1.15786e-06
1.14676e-06
1.14572e-06
1.14564e-06
1.14569e-06
1.1467e-06
1.14678e-06
1.1468e-06
1.14587e-06
1.14534e-06
1.14372e-06
1.14372e-06
1.14372e-06
1.14548e-06
1.14586e-06
1.14674e-06
1.14587e-06
1.14531e-06
1.14372e-06
1.14372e-06
1.14372e-06
1.14372e-06
1.14372e-06
1.14546e-06
1.14585e-06
1.14675e-06
1.14676e-06
1.14534e-06
1.14372e-06
1.14372e-06
1.14372e-06
1.14372e-06
1.14372e-06
1.14372e-06
1.14372e-06
1.14548e-06
1.14594e-06
1.14681e-06
1.14572e-06
1.14372e-06
1.14372e-06
1.14372e-06
1.14372e-06
1.14372e-06
1.14372e-06
1.14372e-06
1.14372e-06
1.14372e-06
1.14594e-06
1.14692e-06
1.14564e-06
1.14372e-06
1.14372e-06
1.14372e-06
1.14372e-06
1.14372e-06
1.14372e-06
1.14372e-06
1.14372e-06
1.14372e-06
1.14592e-06
1.14691e-06
1.14569e-06
1.14372e-06
1.14372e-06
1.14372e-06
1.14372e-06
1.14372e-06
1.14372e-06
1.14372e-06
1.14372e-06
1.14372e-06
1.14593e-06
1.14691e-06
1.1467e-06
1.14548e-06
1.14372e-06
1.14372e-06
1.14372e-06
1.14372e-06
1.14372e-06
1.14372e-06
1.14372e-06
1.14567e-06
1.14596e-06
1.14693e-06
1.14678e-06
1.14586e-06
1.14546e-06
1.14372e-06
1.14372e-06
1.14372e-06
1.14372e-06
1.14372e-06
1.14563e-06
1.14587e-06
1.14604e-06
1.14674e-06
1.14585e-06
1.14548e-06
1.14372e-06
1.14372e-06
1.14372e-06
1.14567e-06
1.14587e-06
1.14601e-06
1.14692e-06
1.14675e-06
1.14594e-06
1.14594e-06
1.14592e-06
1.14593e-06
1.14596e-06
1.14604e-06
1.14692e-06
1.14681e-06
1.14692e-06
1.14691e-06
1.14691e-06
1.14693e-06
1.13583e-06
1.13479e-06
1.13472e-06
1.13477e-06
1.13578e-06
1.13586e-06
1.13587e-06
1.13494e-06
1.13442e-06
1.13279e-06
1.13279e-06
1.13279e-06
1.13456e-06
1.13493e-06
1.13581e-06
1.13494e-06
1.13438e-06
1.13279e-06
1.13279e-06
1.13279e-06
1.13279e-06
1.13279e-06
1.13453e-06
1.13493e-06
1.13582e-06
1.13583e-06
1.13442e-06
1.13279e-06
1.13279e-06
1.13279e-06
1.13279e-06
1.13279e-06
1.13279e-06
1.13279e-06
1.13455e-06
1.13501e-06
1.13589e-06
1.13479e-06
1.13279e-06
1.13279e-06
1.13279e-06
1.13279e-06
1.13279e-06
1.13279e-06
1.13279e-06
1.13279e-06
1.13279e-06
1.13502e-06
1.13599e-06
1.13472e-06
1.13279e-06
1.13279e-06
1.13279e-06
1.13279e-06
1.13279e-06
1.13279e-06
1.13279e-06
1.13279e-06
1.13279e-06
1.13499e-06
1.13598e-06
1.13477e-06
1.13279e-06
1.13279e-06
1.13279e-06
1.13279e-06
1.13279e-06
1.13279e-06
1.13279e-06
1.13279e-06
1.13279e-06
1.135e-06
1.13598e-06
1.13578e-06
1.13456e-06
1.13279e-06
1.13279e-06
1.13279e-06
1.13279e-06
1.13279e-06
1.13279e-06
1.13279e-06
1.13474e-06
1.13504e-06
1.136e-06
1.13586e-06
1.13493e-06
1.13453e-06
1.13279e-06
1.13279e-06
1.13279e-06
1.13279e-06
1.13279e-06
1.1347e-06
1.13494e-06
1.13511e-06
1.13581e-06
1.13493e-06
1.13455e-06
1.13279e-06
1.13279e-06
1.13279e-06
1.13474e-06
1.13494e-06
1.13508e-06
1.13599e-06
1.13582e-06
1.13501e-06
1.13502e-06
1.13499e-06
1.135e-06
1.13504e-06
1.13511e-06
1.13599e-06
1.13589e-06
1.13599e-06
1.13598e-06
1.13598e-06
1.136e-06
1.1249e-06
1.12386e-06
1.12379e-06
1.12384e-06
1.12485e-06
1.12493e-06
1.12495e-06
1.12401e-06
1.12349e-06
1.12186e-06
1.12187e-06
1.12186e-06
1.12363e-06
1.124e-06
1.12489e-06
1.12401e-06
1.12346e-06
1.12187e-06
1.12187e-06
1.12187e-06
1.12187e-06
1.12187e-06
1.1236e-06
1.124e-06
1.12489e-06
1.1249e-06
1.12349e-06
1.12187e-06
1.12187e-06
1.12187e-06
1.12187e-06
1.12187e-06
1.12187e-06
1.12187e-06
1.12363e-06
1.12408e-06
1.12496e-06
1.12386e-06
1.12186e-06
1.12187e-06
1.12187e-06
1.12187e-06
1.12187e-06
1.12187e-06
1.12187e-06
1.12187e-06
1.12186e-06
1.12409e-06
1.12506e-06
1.12379e-06
1.12187e-06
1.12187e-06
1.12187e-06
1.12187e-06
1.12187e-06
1.12187e-06
1.12187e-06
1.12187e-06
1.12187e-06
1.12406e-06
1.12505e-06
1.12384e-06
1.12186e-06
1.12187e-06
1.12187e-06
1.12187e-06
1.12187e-06
1.12187e-06
1.12187e-06
1.12187e-06
1.12187e-06
1.12407e-06
1.12505e-06
1.12485e-06
1.12363e-06
1.12187e-06
1.12187e-06
1.12187e-06
1.12187e-06
1.12187e-06
1.12187e-06
1.12187e-06
1.12381e-06
1.12411e-06
1.12507e-06
1.12493e-06
1.124e-06
1.1236e-06
1.12187e-06
1.12187e-06
1.12187e-06
1.12187e-06
1.12187e-06
1.12378e-06
1.12401e-06
1.12418e-06
1.12489e-06
1.124e-06
1.12363e-06
1.12186e-06
1.12187e-06
1.12186e-06
1.12381e-06
1.12401e-06
1.12416e-06
1.12506e-06
1.12489e-06
1.12408e-06
1.12409e-06
1.12406e-06
1.12407e-06
1.12411e-06
1.12418e-06
1.12506e-06
1.12496e-06
1.12506e-06
1.12505e-06
1.12505e-06
1.12507e-06
1.11397e-06
1.11294e-06
1.11286e-06
1.11291e-06
1.11392e-06
1.114e-06
1.11402e-06
1.11308e-06
1.11256e-06
1.11094e-06
1.11094e-06
1.11094e-06
1.1127e-06
1.11307e-06
1.11396e-06
1.11308e-06
1.11253e-06
1.11094e-06
1.11094e-06
1.11094e-06
1.11094e-06
1.11094e-06
1.11267e-06
1.11307e-06
1.11396e-06
1.11397e-06
1.11256e-06
1.11094e-06
1.11094e-06
1.11094e-06
1.11094e-06
1.11094e-06
1.11094e-06
1.11094e-06
1.1127e-06
1.11316e-06
1.11403e-06
1.11294e-06
1.11094e-06
1.11094e-06
1.11094e-06
1.11094e-06
1.11094e-06
1.11094e-06
1.11094e-06
1.11094e-06
1.11094e-06
1.11316e-06
1.11413e-06
1.11286e-06
1.11094e-06
1.11094e-06
1.11094e-06
1.11094e-06
1.11094e-06
1.11094e-06
1.11094e-06
1.11094e-06
1.11094e-06
1.11314e-06
1.11412e-06
1.11291e-06
1.11094e-06
1.11094e-06
1.11094e-06
1.11094e-06
1.11094e-06
1.11094e-06
1.11094e-06
1.11094e-06
1.11094e-06
1.11315e-06
1.11413e-06
1.11392e-06
1.1127e-06
1.11094e-06
1.11094e-06
1.11094e-06
1.11094e-06
1.11094e-06
1.11094e-06
1.11094e-06
1.11289e-06
1.11318e-06
1.11414e-06
1.114e-06
1.11307e-06
1.11267e-06
1.11094e-06
1.11094e-06
1.11094e-06
1.11094e-06
1.11094e-06
1.11285e-06
1.11309e-06
1.11326e-06
1.11396e-06
1.11307e-06
1.1127e-06
1.11094e-06
1.11094e-06
1.11094e-06
1.11289e-06
1.11309e-06
1.11323e-06
1.11413e-06
1.11396e-06
1.11316e-06
1.11316e-06
1.11314e-06
1.11315e-06
1.11318e-06
1.11326e-06
1.11413e-06
1.11403e-06
1.11413e-06
1.11412e-06
1.11413e-06
1.11414e-06
1.10304e-06
1.10201e-06
1.10193e-06
1.10198e-06
1.10299e-06
1.10307e-06
1.10309e-06
1.10215e-06
1.10163e-06
1.10001e-06
1.10001e-06
1.10001e-06
1.10177e-06
1.10215e-06
1.10303e-06
1.10215e-06
1.1016e-06
1.10001e-06
1.10001e-06
1.10001e-06
1.10001e-06
1.10001e-06
1.10175e-06
1.10214e-06
1.10304e-06
1.10304e-06
1.10163e-06
1.10001e-06
1.10001e-06
1.10001e-06
1.10001e-06
1.10001e-06
1.10001e-06
1.10001e-06
1.10177e-06
1.10223e-06
1.1031e-06
1.10201e-06
1.10001e-06
1.10001e-06
1.10001e-06
1.10001e-06
1.10001e-06
1.10001e-06
1.10001e-06
1.10001e-06
1.10001e-06
1.10223e-06
1.10321e-06
1.10193e-06
1.10001e-06
1.10001e-06
1.10001e-06
1.10001e-06
1.10001e-06
1.10001e-06
1.10001e-06
1.10001e-06
1.10001e-06
1.10221e-06
1.1032e-06
1.10198e-06
1.10001e-06
1.10001e-06
1.10001e-06
1.10001e-06
1.10001e-06
1.10001e-06
1.10001e-06
1.10001e-06
1.10001e-06
1.10222e-06
1.1032e-06
1.10299e-06
1.10177e-06
1.10001e-06
1.10001e-06
1.10001e-06
1.10001e-06
1.10001e-06
1.10001e-06
1.10001e-06
1.10196e-06
1.10225e-06
1.10322e-06
1.10307e-06
1.10215e-06
1.10175e-06
1.10001e-06
1.10001e-06
1.10001e-06
1.10001e-06
1.10001e-06
1.10192e-06
1.10216e-06
1.10233e-06
1.10303e-06
1.10214e-06
1.10177e-06
1.10001e-06
1.10001e-06
1.10001e-06
1.10196e-06
1.10216e-06
1.1023e-06
1.10321e-06
1.10304e-06
1.10223e-06
1.10223e-06
1.10221e-06
1.10222e-06
1.10225e-06
1.10233e-06
1.10321e-06
1.1031e-06
1.10321e-06
1.10319e-06
1.1032e-06
1.10322e-06
1.09212e-06
1.09108e-06
1.091e-06
1.09105e-06
1.09206e-06
1.09214e-06
1.09216e-06
1.09123e-06
1.0907e-06
1.08908e-06
1.08908e-06
1.08908e-06
1.09084e-06
1.09122e-06
1.0921e-06
1.09123e-06
1.09067e-06
1.08908e-06
1.08908e-06
1.08908e-06
1.08908e-06
1.08908e-06
1.09082e-06
1.09121e-06
1.09211e-06
1.09212e-06
1.0907e-06
1.08908e-06
1.08908e-06
1.08908e-06
1.08908e-06
1.08908e-06
1.08908e-06
1.08908e-06
1.09084e-06
1.0913e-06
1.09217e-06
1.09108e-06
1.08908e-06
1.08908e-06
1.08908e-06
1.08908e-06
1.08908e-06
1.08908e-06
1.08908e-06
1.08908e-06
1.08908e-06
1.0913e-06
1.09228e-06
1.091e-06
1.08908e-06
1.08908e-06
1.08908e-06
1.08908e-06
1.08908e-06
1.08908e-06
1.08908e-06
1.08908e-06
1.08908e-06
1.09128e-06
1.09227e-06
1.09105e-06
1.08908e-06
1.08908e-06
1.08908e-06
1.08908e-06
1.08908e-06
1.08908e-06
1.08908e-06
1.08908e-06
1.08908e-06
1.09129e-06
1.09227e-06
1.09206e-06
1.09084e-06
1.08908e-06
1.08908e-06
1.08908e-06
1.08908e-06
1.08908e-06
1.08908e-06
1.08908e-06
1.09103e-06
1.09132e-06
1.09229e-06
1.09214e-06
1.09122e-06
1.09082e-06
1.08908e-06
1.08908e-06
1.08908e-06
1.08908e-06
1.08908e-06
1.09099e-06
1.09123e-06
1.0914e-06
1.0921e-06
1.09121e-06
1.09084e-06
1.08908e-06
1.08908e-06
1.08908e-06
1.09103e-06
1.09123e-06
1.09137e-06
1.09228e-06
1.09211e-06
1.0913e-06
1.0913e-06
1.09128e-06
1.09129e-06
1.09132e-06
1.0914e-06
1.09228e-06
1.09217e-06
1.09228e-06
1.09227e-06
1.09227e-06
1.09229e-06
1.08119e-06
1.08015e-06
1.08008e-06
1.08013e-06
1.08114e-06
1.08122e-06
1.08123e-06
1.0803e-06
1.07978e-06
1.07815e-06
1.07815e-06
1.07815e-06
1.07992e-06
1.08029e-06
1.08117e-06
1.0803e-06
1.07974e-06
1.07815e-06
1.07815e-06
1.07815e-06
1.07815e-06
1.07815e-06
1.07989e-06
1.08029e-06
1.08118e-06
1.08119e-06
1.07978e-06
1.07815e-06
1.07815e-06
1.07815e-06
1.07815e-06
1.07815e-06
1.07815e-06
1.07815e-06
1.07991e-06
1.08037e-06
1.08125e-06
1.08015e-06
1.07815e-06
1.07815e-06
1.07815e-06
1.07815e-06
1.07815e-06
1.07815e-06
1.07815e-06
1.07815e-06
1.07815e-06
1.08038e-06
1.08135e-06
1.08008e-06
1.07815e-06
1.07815e-06
1.07815e-06
1.07815e-06
1.07815e-06
1.07815e-06
1.07815e-06
1.07815e-06
1.07815e-06
1.08035e-06
1.08134e-06
1.08013e-06
1.07815e-06
1.07815e-06
1.07815e-06
1.07815e-06
1.07815e-06
1.07815e-06