/*--------------------------------*- C++ -*----------------------------------*\
| =========                 |                                                 |
| \\      /  F ield         | OpenFOAM: The Open Source CFD Toolbox           |
|  \\    /   O peration     | Version:  v2012                                 |
|   \\  /    A nd           | Website:  www.openfoam.com                      |
|    \\/     M anipulation  |                                                 |
\*---------------------------------------------------------------------------*/
FoamFile
{
    version     2.0;
    format      ascii;
    class       volScalarField;
    location    "68";
    object      p;
}
// * * * * * * * * * * * * * * * * * * * * * * * * * * * * * * * * * * * * * //

dimensions      [0 2 -2 0 0 0 0];


internalField   nonuniform List<scalar> 
292667
(
1.07198e-06
1.06301e-06
1.06233e-06
1.06239e-06
1.0633e-06
1.07284e-06
1.06321e-06
1.06089e-06
1.05952e-06
1.05896e-06
1.05903e-06
1.05976e-06
1.06133e-06
1.06386e-06
1.06321e-06
1.06022e-06
1.05833e-06
1.05728e-06
1.05684e-06
1.0569e-06
1.05747e-06
1.05868e-06
1.0608e-06
1.06403e-06
1.07199e-06
1.06089e-06
1.05833e-06
1.05679e-06
1.05593e-06
1.05557e-06
1.05562e-06
1.05609e-06
1.05709e-06
1.05883e-06
1.06169e-06
1.07146e-06
1.06301e-06
1.05952e-06
1.05728e-06
1.05593e-06
1.05517e-06
1.05484e-06
1.05488e-06
1.05531e-06
1.0562e-06
1.05773e-06
1.06026e-06
1.06635e-06
1.06233e-06
1.05896e-06
1.05684e-06
1.05557e-06
1.05484e-06
1.05452e-06
1.05457e-06
1.05498e-06
1.05582e-06
1.05727e-06
1.05968e-06
1.06484e-06
1.06239e-06
1.05903e-06
1.0569e-06
1.05562e-06
1.05488e-06
1.05457e-06
1.05461e-06
1.05502e-06
1.05588e-06
1.05734e-06
1.05976e-06
1.06514e-06
1.0633e-06
1.05976e-06
1.05747e-06
1.05609e-06
1.05531e-06
1.05498e-06
1.05502e-06
1.05546e-06
1.05637e-06
1.05794e-06
1.06054e-06
1.06664e-06
1.07284e-06
1.06133e-06
1.05868e-06
1.05709e-06
1.0562e-06
1.05582e-06
1.05588e-06
1.05637e-06
1.05741e-06
1.05923e-06
1.06219e-06
1.07132e-06
1.06386e-06
1.0608e-06
1.05883e-06
1.05773e-06
1.05727e-06
1.05734e-06
1.05794e-06
1.05923e-06
1.06147e-06
1.06732e-06
1.06403e-06
1.06169e-06
1.06026e-06
1.05968e-06
1.05976e-06
1.06054e-06
1.06219e-06
1.06732e-06
1.07146e-06
1.06635e-06
1.06484e-06
1.06514e-06
1.06664e-06
1.07132e-06
1.04777e-06
1.0471e-06
1.04707e-06
1.04712e-06
1.0478e-06
1.04766e-06
1.0478e-06
1.04728e-06
1.04694e-06
1.04578e-06
1.04576e-06
1.04578e-06
1.04711e-06
1.04734e-06
1.04785e-06
1.04728e-06
1.04693e-06
1.04582e-06
1.04577e-06
1.04581e-06
1.04577e-06
1.04582e-06
1.04709e-06
1.04733e-06
1.04783e-06
1.04777e-06
1.04694e-06
1.04582e-06
1.04576e-06
1.04578e-06
1.04577e-06
1.04578e-06
1.04576e-06
1.04582e-06
1.04709e-06
1.04736e-06
1.04785e-06
1.0471e-06
1.04578e-06
1.04577e-06
1.04578e-06
1.04574e-06
1.04575e-06
1.04574e-06
1.04578e-06
1.04577e-06
1.04578e-06
1.04752e-06
1.04803e-06
1.04707e-06
1.04576e-06
1.04581e-06
1.04577e-06
1.04575e-06
1.04574e-06
1.04575e-06
1.04577e-06
1.04581e-06
1.04576e-06
1.04754e-06
1.04796e-06
1.04712e-06
1.04578e-06
1.04577e-06
1.04578e-06
1.04574e-06
1.04575e-06
1.04574e-06
1.04578e-06
1.04577e-06
1.04578e-06
1.04753e-06
1.04799e-06
1.0478e-06
1.04711e-06
1.04582e-06
1.04576e-06
1.04578e-06
1.04577e-06
1.04578e-06
1.04576e-06
1.04582e-06
1.04729e-06
1.04742e-06
1.04798e-06
1.04766e-06
1.04734e-06
1.04709e-06
1.04582e-06
1.04577e-06
1.04581e-06
1.04577e-06
1.04582e-06
1.04726e-06
1.04739e-06
1.04739e-06
1.04785e-06
1.04733e-06
1.04709e-06
1.04578e-06
1.04576e-06
1.04578e-06
1.04729e-06
1.04739e-06
1.04743e-06
1.04794e-06
1.04783e-06
1.04736e-06
1.04752e-06
1.04754e-06
1.04753e-06
1.04742e-06
1.04739e-06
1.04794e-06
1.04785e-06
1.04803e-06
1.04796e-06
1.04799e-06
1.04798e-06
1.03886e-06
1.03814e-06
1.03808e-06
1.03813e-06
1.03887e-06
1.03889e-06
1.03887e-06
1.03825e-06
1.03785e-06
1.03673e-06
1.03672e-06
1.03673e-06
1.03801e-06
1.03828e-06
1.03888e-06
1.03825e-06
1.03783e-06
1.03677e-06
1.03677e-06
1.03681e-06
1.03677e-06
1.03677e-06
1.03801e-06
1.03828e-06
1.03888e-06
1.03886e-06
1.03785e-06
1.03677e-06
1.03679e-06
1.03683e-06
1.03683e-06
1.03683e-06
1.03679e-06
1.03677e-06
1.03802e-06
1.03835e-06
1.0389e-06
1.03814e-06
1.03673e-06
1.03677e-06
1.03683e-06
1.03684e-06
1.03686e-06
1.03684e-06
1.03683e-06
1.03677e-06
1.03673e-06
1.03842e-06
1.03905e-06
1.03808e-06
1.03672e-06
1.03681e-06
1.03683e-06
1.03686e-06
1.03686e-06
1.03686e-06
1.03683e-06
1.03681e-06
1.03672e-06
1.03842e-06
1.03907e-06
1.03813e-06
1.03673e-06
1.03677e-06
1.03683e-06
1.03684e-06
1.03686e-06
1.03684e-06
1.03683e-06
1.03677e-06
1.03673e-06
1.03842e-06
1.03907e-06
1.03887e-06
1.03801e-06
1.03677e-06
1.03679e-06
1.03683e-06
1.03683e-06
1.03683e-06
1.03679e-06
1.03677e-06
1.03823e-06
1.0384e-06
1.03904e-06
1.03889e-06
1.03828e-06
1.03801e-06
1.03677e-06
1.03677e-06
1.03681e-06
1.03677e-06
1.03677e-06
1.03821e-06
1.03834e-06
1.03842e-06
1.03888e-06
1.03828e-06
1.03802e-06
1.03673e-06
1.03672e-06
1.03673e-06
1.03823e-06
1.03834e-06
1.03841e-06
1.03902e-06
1.03888e-06
1.03835e-06
1.03842e-06
1.03842e-06
1.03842e-06
1.0384e-06
1.03842e-06
1.03902e-06
1.0389e-06
1.03905e-06
1.03907e-06
1.03907e-06
1.03904e-06
1.02997e-06
1.02925e-06
1.02919e-06
1.02923e-06
1.02998e-06
1.03001e-06
1.02999e-06
1.02935e-06
1.02893e-06
1.02779e-06
1.02779e-06
1.02779e-06
1.02909e-06
1.02937e-06
1.03e-06
1.02935e-06
1.0289e-06
1.02781e-06
1.02783e-06
1.02784e-06
1.02783e-06
1.02781e-06
1.02907e-06
1.02937e-06
1.03e-06
1.02997e-06
1.02893e-06
1.02781e-06
1.02784e-06
1.02787e-06
1.02787e-06
1.02787e-06
1.02784e-06
1.02781e-06
1.02909e-06
1.02945e-06
1.03002e-06
1.02925e-06
1.02779e-06
1.02783e-06
1.02787e-06
1.02788e-06
1.0279e-06
1.02788e-06
1.02787e-06
1.02783e-06
1.02779e-06
1.02951e-06
1.03017e-06
1.02919e-06
1.02779e-06
1.02784e-06
1.02787e-06
1.0279e-06
1.0279e-06
1.0279e-06
1.02787e-06
1.02784e-06
1.02779e-06
1.0295e-06
1.03019e-06
1.02923e-06
1.02779e-06
1.02783e-06
1.02787e-06
1.02788e-06
1.0279e-06
1.02788e-06
1.02787e-06
1.02783e-06
1.02779e-06
1.02951e-06
1.03019e-06
1.02998e-06
1.02909e-06
1.02781e-06
1.02784e-06
1.02787e-06
1.02787e-06
1.02787e-06
1.02784e-06
1.02781e-06
1.0293e-06
1.0295e-06
1.03016e-06
1.03001e-06
1.02937e-06
1.02907e-06
1.02781e-06
1.02783e-06
1.02784e-06
1.02783e-06
1.02781e-06
1.02928e-06
1.02942e-06
1.02954e-06
1.03e-06
1.02937e-06
1.02909e-06
1.02779e-06
1.02779e-06
1.02779e-06
1.0293e-06
1.02943e-06
1.02951e-06
1.03014e-06
1.03e-06
1.02945e-06
1.02951e-06
1.0295e-06
1.02951e-06
1.0295e-06
1.02954e-06
1.03014e-06
1.03002e-06
1.03017e-06
1.03019e-06
1.03019e-06
1.03016e-06
1.02109e-06
1.02036e-06
1.0203e-06
1.02034e-06
1.0211e-06
1.02112e-06
1.0211e-06
1.02046e-06
1.02004e-06
1.01888e-06
1.01889e-06
1.01888e-06
1.02019e-06
1.02048e-06
1.02111e-06
1.02046e-06
1.02e-06
1.0189e-06
1.01891e-06
1.01891e-06
1.01891e-06
1.0189e-06
1.02017e-06
1.02048e-06
1.02112e-06
1.02109e-06
1.02004e-06
1.0189e-06
1.01891e-06
1.01893e-06
1.01893e-06
1.01893e-06
1.01891e-06
1.0189e-06
1.02019e-06
1.02056e-06
1.02114e-06
1.02036e-06
1.01888e-06
1.01891e-06
1.01893e-06
1.01894e-06
1.01895e-06
1.01894e-06
1.01893e-06
1.01891e-06
1.01888e-06
1.02062e-06
1.02128e-06
1.0203e-06
1.01889e-06
1.01891e-06
1.01893e-06
1.01895e-06
1.01895e-06
1.01895e-06
1.01893e-06
1.01891e-06
1.01889e-06
1.02061e-06
1.0213e-06
1.02034e-06
1.01888e-06
1.01891e-06
1.01893e-06
1.01894e-06
1.01895e-06
1.01894e-06
1.01893e-06
1.01891e-06
1.01888e-06
1.02061e-06
1.0213e-06
1.0211e-06
1.02019e-06
1.0189e-06
1.01891e-06
1.01893e-06
1.01893e-06
1.01893e-06
1.01891e-06
1.0189e-06
1.02041e-06
1.02061e-06
1.02127e-06
1.02112e-06
1.02048e-06
1.02017e-06
1.0189e-06
1.01891e-06
1.01891e-06
1.01891e-06
1.0189e-06
1.02038e-06
1.02053e-06
1.02065e-06
1.02111e-06
1.02048e-06
1.02019e-06
1.01888e-06
1.01889e-06
1.01888e-06
1.02041e-06
1.02053e-06
1.02063e-06
1.02125e-06
1.02112e-06
1.02056e-06
1.02062e-06
1.02061e-06
1.02061e-06
1.02061e-06
1.02065e-06
1.02125e-06
1.02114e-06
1.02128e-06
1.0213e-06
1.0213e-06
1.02127e-06
1.0122e-06
1.01147e-06
1.01141e-06
1.01145e-06
1.01221e-06
1.01223e-06
1.01222e-06
1.01157e-06
1.01115e-06
1.00999e-06
1.00999e-06
1.00999e-06
1.0113e-06
1.01159e-06
1.01223e-06
1.01157e-06
1.01111e-06
1.00999e-06
1.01e-06
1.01e-06
1.01e-06
1.00999e-06
1.01127e-06
1.01159e-06
1.01223e-06
1.0122e-06
1.01115e-06
1.00999e-06
1.01e-06
1.01001e-06
1.01002e-06
1.01001e-06
1.01e-06
1.00999e-06
1.0113e-06
1.01167e-06
1.01225e-06
1.01147e-06
1.00999e-06
1.01e-06
1.01001e-06
1.01002e-06
1.01003e-06
1.01002e-06
1.01001e-06
1.01e-06
1.00999e-06
1.01173e-06
1.0124e-06
1.01141e-06
1.00999e-06
1.01e-06
1.01002e-06
1.01003e-06
1.01003e-06
1.01003e-06
1.01002e-06
1.01e-06
1.00999e-06
1.01172e-06
1.01241e-06
1.01145e-06
1.00999e-06
1.01e-06
1.01001e-06
1.01002e-06
1.01003e-06
1.01002e-06
1.01001e-06
1.01e-06
1.00999e-06
1.01172e-06
1.01241e-06
1.01221e-06
1.0113e-06
1.00999e-06
1.01e-06
1.01001e-06
1.01002e-06
1.01001e-06
1.01e-06
1.00999e-06
1.01151e-06
1.01172e-06
1.01239e-06
1.01223e-06
1.01159e-06
1.01127e-06
1.00999e-06
1.01e-06
1.01e-06
1.01e-06
1.00999e-06
1.01148e-06
1.01164e-06
1.01176e-06
1.01223e-06
1.01159e-06
1.0113e-06
1.00999e-06
1.00999e-06
1.00999e-06
1.01151e-06
1.01164e-06
1.01174e-06
1.01237e-06
1.01223e-06
1.01167e-06
1.01173e-06
1.01172e-06
1.01172e-06
1.01172e-06
1.01176e-06
1.01237e-06
1.01225e-06
1.0124e-06
1.01241e-06
1.01241e-06
1.01239e-06
1.00331e-06
1.00258e-06
1.00252e-06
1.00257e-06
1.00332e-06
1.00335e-06
1.00333e-06
1.00268e-06
1.00225e-06
1.0011e-06
1.0011e-06
1.0011e-06
1.00241e-06
1.0027e-06
1.00334e-06
1.00268e-06
1.00222e-06
1.0011e-06
1.0011e-06
1.0011e-06
1.0011e-06
1.0011e-06
1.00238e-06
1.0027e-06
1.00334e-06
1.00331e-06
1.00225e-06
1.0011e-06
1.0011e-06
1.00111e-06
1.00111e-06
1.00111e-06
1.0011e-06
1.0011e-06
1.00241e-06
1.00278e-06
1.00336e-06
1.00258e-06
1.0011e-06
1.0011e-06
1.00111e-06
1.00112e-06
1.00112e-06
1.00112e-06
1.00111e-06
1.0011e-06
1.0011e-06
1.00284e-06
1.00351e-06
1.00252e-06
1.0011e-06
1.0011e-06
1.00111e-06
1.00112e-06
1.00112e-06
1.00112e-06
1.00111e-06
1.0011e-06
1.0011e-06
1.00283e-06
1.00352e-06
1.00257e-06
1.0011e-06
1.0011e-06
1.00111e-06
1.00112e-06
1.00112e-06
1.00112e-06
1.00111e-06
1.0011e-06
1.0011e-06
1.00283e-06
1.00352e-06
1.00332e-06
1.00241e-06
1.0011e-06
1.0011e-06
1.00111e-06
1.00111e-06
1.00111e-06
1.0011e-06
1.0011e-06
1.00262e-06
1.00283e-06
1.0035e-06
1.00335e-06
1.0027e-06
1.00238e-06
1.0011e-06
1.0011e-06
1.0011e-06
1.0011e-06
1.0011e-06
1.00259e-06
1.00275e-06
1.00288e-06
1.00334e-06
1.0027e-06
1.00241e-06
1.0011e-06
1.0011e-06
1.0011e-06
1.00262e-06
1.00275e-06
1.00285e-06
1.00348e-06
1.00334e-06
1.00278e-06
1.00284e-06
1.00283e-06
1.00283e-06
1.00283e-06
1.00288e-06
1.00348e-06
1.00336e-06
1.00351e-06
1.00352e-06
1.00352e-06
1.0035e-06
9.94424e-07
9.9369e-07
9.93628e-07
9.93676e-07
9.94434e-07
9.94457e-07
9.9444e-07
9.93794e-07
9.93365e-07
9.92204e-07
9.92205e-07
9.92204e-07
9.93515e-07
9.93811e-07
9.94448e-07
9.93794e-07
9.93328e-07
9.92206e-07
9.92209e-07
9.92209e-07
9.92209e-07
9.92206e-07
9.93493e-07
9.93809e-07
9.94451e-07
9.94424e-07
9.93365e-07
9.92206e-07
9.9221e-07
9.92212e-07
9.92213e-07
9.92212e-07
9.9221e-07
9.92206e-07
9.93518e-07
9.93895e-07
9.94471e-07
9.9369e-07
9.92204e-07
9.92209e-07
9.92212e-07
9.92216e-07
9.92217e-07
9.92216e-07
9.92212e-07
9.92209e-07
9.92204e-07
9.93949e-07
9.94619e-07
9.93628e-07
9.92205e-07
9.92209e-07
9.92213e-07
9.92217e-07
9.92218e-07
9.92217e-07
9.92213e-07
9.92209e-07
9.92205e-07
9.9394e-07
9.94636e-07
9.93676e-07
9.92204e-07
9.92209e-07
9.92212e-07
9.92216e-07
9.92217e-07
9.92216e-07
9.92212e-07
9.92209e-07
9.92204e-07
9.93943e-07
9.94636e-07
9.94434e-07
9.93515e-07
9.92206e-07
9.9221e-07
9.92212e-07
9.92213e-07
9.92212e-07
9.9221e-07
9.92206e-07
9.93732e-07
9.93942e-07
9.9461e-07
9.94457e-07
9.93811e-07
9.93493e-07
9.92206e-07
9.92209e-07
9.92209e-07
9.92209e-07
9.92206e-07
9.93699e-07
9.93862e-07
9.93987e-07
9.94448e-07
9.93809e-07
9.93518e-07
9.92204e-07
9.92206e-07
9.92204e-07
9.93732e-07
9.93862e-07
9.93962e-07
9.94591e-07
9.94451e-07
9.93895e-07
9.93949e-07
9.9394e-07
9.93943e-07
9.93942e-07
9.93987e-07
9.94591e-07
9.94471e-07
9.94619e-07
9.94636e-07
9.94636e-07
9.9461e-07
9.85535e-07
9.84801e-07
9.84738e-07
9.84786e-07
9.85544e-07
9.85567e-07
9.85551e-07
9.84904e-07
9.84475e-07
9.83314e-07
9.83315e-07
9.83314e-07
9.84626e-07
9.84922e-07
9.85559e-07
9.84904e-07
9.84439e-07
9.83315e-07
9.83317e-07
9.83317e-07
9.83317e-07
9.83315e-07
9.84603e-07
9.84919e-07
9.85562e-07
9.85535e-07
9.84475e-07
9.83315e-07
9.83317e-07
9.83318e-07
9.83319e-07
9.83318e-07
9.83317e-07
9.83315e-07
9.84628e-07
9.85005e-07
9.85582e-07
9.84801e-07
9.83314e-07
9.83317e-07
9.83318e-07
9.83321e-07
9.83321e-07
9.83321e-07
9.83318e-07
9.83317e-07
9.83314e-07
9.8506e-07
9.8573e-07
9.84738e-07
9.83315e-07
9.83317e-07
9.83319e-07
9.83321e-07
9.83322e-07
9.83321e-07
9.83319e-07
9.83317e-07
9.83315e-07
9.85051e-07
9.85746e-07
9.84786e-07
9.83314e-07
9.83317e-07
9.83318e-07
9.83321e-07
9.83321e-07
9.83321e-07
9.83319e-07
9.83317e-07
9.83314e-07
9.85054e-07
9.85747e-07
9.85544e-07
9.84626e-07
9.83315e-07
9.83317e-07
9.83318e-07
9.83319e-07
9.83318e-07
9.83317e-07
9.83315e-07
9.84843e-07
9.85053e-07
9.8572e-07
9.85567e-07
9.84922e-07
9.84603e-07
9.83315e-07
9.83317e-07
9.83317e-07
9.83317e-07
9.83315e-07
9.8481e-07
9.84972e-07
9.85098e-07
9.85559e-07
9.84919e-07
9.84628e-07
9.83314e-07
9.83315e-07
9.83314e-07
9.84843e-07
9.84973e-07
9.85073e-07
9.85702e-07
9.85562e-07
9.85005e-07
9.8506e-07
9.85051e-07
9.85054e-07
9.85053e-07
9.85098e-07
9.85702e-07
9.85582e-07
9.8573e-07
9.85746e-07
9.85747e-07
9.8572e-07
9.76645e-07
9.75911e-07
9.75849e-07
9.75897e-07
9.76655e-07
9.76678e-07
9.76662e-07
9.76015e-07
9.75585e-07
9.74424e-07
9.74425e-07
9.74424e-07
9.75736e-07
9.76032e-07
9.7667e-07
9.76015e-07
9.75549e-07
9.74425e-07
9.74426e-07
9.74426e-07
9.74426e-07
9.74425e-07
9.75713e-07
9.7603e-07
9.76673e-07
9.76645e-07
9.75585e-07
9.74425e-07
9.74426e-07
9.74427e-07
9.74427e-07
9.74427e-07
9.74426e-07
9.74425e-07
9.75738e-07
9.76116e-07
9.76692e-07
9.75911e-07
9.74424e-07
9.74427e-07
9.74427e-07
9.74428e-07
9.74428e-07
9.74428e-07
9.74427e-07
9.74427e-07
9.74424e-07
9.7617e-07
9.7684e-07
9.75849e-07
9.74425e-07
9.74426e-07
9.74427e-07
9.74428e-07
9.74429e-07
9.74428e-07
9.74427e-07
9.74426e-07
9.74425e-07
9.76161e-07
9.76857e-07
9.75897e-07
9.74424e-07
9.74427e-07
9.74427e-07
9.74428e-07
9.74428e-07
9.74428e-07
9.74427e-07
9.74427e-07
9.74424e-07
9.76164e-07
9.76857e-07
9.76655e-07
9.75736e-07
9.74425e-07
9.74426e-07
9.74427e-07
9.74427e-07
9.74427e-07
9.74426e-07
9.74425e-07
9.75953e-07
9.76163e-07
9.76831e-07
9.76678e-07
9.76032e-07
9.75713e-07
9.74425e-07
9.74426e-07
9.74426e-07
9.74426e-07
9.74425e-07
9.7592e-07
9.76083e-07
9.76208e-07
9.7667e-07
9.7603e-07
9.75738e-07
9.74424e-07
9.74425e-07
9.74424e-07
9.75953e-07
9.76083e-07
9.76184e-07
9.76813e-07
9.76673e-07
9.76116e-07
9.7617e-07
9.76161e-07
9.76164e-07
9.76163e-07
9.76208e-07
9.76812e-07
9.76692e-07
9.7684e-07
9.76857e-07
9.76857e-07
9.76831e-07
9.67756e-07
9.67022e-07
9.66959e-07
9.67007e-07
9.67765e-07
9.67789e-07
9.67772e-07
9.67125e-07
9.66696e-07
9.65534e-07
9.65535e-07
9.65534e-07
9.66846e-07
9.67143e-07
9.6778e-07
9.67125e-07
9.66659e-07
9.65535e-07
9.65537e-07
9.65536e-07
9.65537e-07
9.65535e-07
9.66824e-07
9.6714e-07
9.67783e-07
9.67756e-07
9.66696e-07
9.65535e-07
9.65536e-07
9.65536e-07
9.65537e-07
9.65536e-07
9.65536e-07
9.65535e-07
9.66849e-07
9.67226e-07
9.67803e-07
9.67022e-07
9.65534e-07
9.65536e-07
9.65536e-07
9.65537e-07
9.65537e-07
9.65537e-07
9.65536e-07
9.65536e-07
9.65534e-07
9.67281e-07
9.67951e-07
9.66959e-07
9.65535e-07
9.65536e-07
9.65537e-07
9.65537e-07
9.65537e-07
9.65537e-07
9.65536e-07
9.65536e-07
9.65535e-07
9.67271e-07
9.67967e-07
9.67007e-07
9.65534e-07
9.65536e-07
9.65536e-07
9.65537e-07
9.65537e-07
9.65537e-07
9.65536e-07
9.65536e-07
9.65534e-07
9.67274e-07
9.67968e-07
9.67765e-07
9.66846e-07
9.65535e-07
9.65536e-07
9.65536e-07
9.65536e-07
9.65536e-07
9.65536e-07
9.65535e-07
9.67063e-07
9.67274e-07
9.67941e-07
9.67789e-07
9.67143e-07
9.66824e-07
9.65535e-07
9.65536e-07
9.65536e-07
9.65537e-07
9.65535e-07
9.6703e-07
9.67193e-07
9.67319e-07
9.6778e-07
9.6714e-07
9.66849e-07
9.65534e-07
9.65535e-07
9.65534e-07
9.67063e-07
9.67193e-07
9.67294e-07
9.67923e-07
9.67783e-07
9.67226e-07
9.67281e-07
9.67271e-07
9.67274e-07
9.67274e-07
9.67319e-07
9.67923e-07
9.67803e-07
9.67951e-07
9.67967e-07
9.67968e-07
9.67941e-07
9.58866e-07
9.58132e-07
9.5807e-07
9.58118e-07
9.58876e-07
9.58899e-07
9.58883e-07
9.58236e-07
9.57806e-07
9.56645e-07
9.56645e-07
9.56645e-07
9.57957e-07
9.58253e-07
9.58891e-07
9.58236e-07
9.5777e-07
9.56645e-07
9.56647e-07
9.56646e-07
9.56647e-07
9.56645e-07
9.57934e-07
9.58251e-07
9.58894e-07
9.58866e-07
9.57806e-07
9.56645e-07
9.56646e-07
9.56646e-07
9.56646e-07
9.56646e-07
9.56646e-07
9.56645e-07
9.57959e-07
9.58337e-07
9.58913e-07
9.58132e-07
9.56645e-07
9.56647e-07
9.56646e-07
9.56647e-07
9.56646e-07
9.56647e-07
9.56646e-07
9.56647e-07
9.56645e-07
9.58391e-07
9.59061e-07
9.58069e-07
9.56645e-07
9.56646e-07
9.56646e-07
9.56646e-07
9.56647e-07
9.56646e-07
9.56646e-07
9.56646e-07
9.56645e-07
9.58382e-07
9.59078e-07
9.58118e-07
9.56645e-07
9.56647e-07
9.56646e-07
9.56647e-07
9.56646e-07
9.56647e-07
9.56646e-07
9.56647e-07
9.56645e-07
9.58385e-07
9.59078e-07
9.58876e-07
9.57957e-07
9.56645e-07
9.56646e-07
9.56646e-07
9.56646e-07
9.56646e-07
9.56646e-07
9.56645e-07
9.58174e-07
9.58384e-07
9.59052e-07
9.58899e-07
9.58253e-07
9.57934e-07
9.56645e-07
9.56647e-07
9.56646e-07
9.56647e-07
9.56645e-07
9.58141e-07
9.58304e-07
9.58429e-07
9.58891e-07
9.58251e-07
9.57959e-07
9.56645e-07
9.56645e-07
9.56645e-07
9.58174e-07
9.58304e-07
9.58405e-07
9.59034e-07
9.58894e-07
9.58337e-07
9.58391e-07
9.58382e-07
9.58385e-07
9.58384e-07
9.58429e-07
9.59033e-07
9.58913e-07
9.59061e-07
9.59078e-07
9.59078e-07
9.59052e-07
9.49977e-07
9.49243e-07
9.4918e-07
9.49228e-07
9.49986e-07
9.5001e-07
9.49993e-07
9.49346e-07
9.48917e-07
9.47755e-07
9.47756e-07
9.47755e-07
9.49067e-07
9.49364e-07
9.50001e-07
9.49346e-07
9.4888e-07
9.47756e-07
9.47757e-07
9.47756e-07
9.47757e-07
9.47756e-07
9.49044e-07
9.49361e-07
9.50004e-07
9.49977e-07
9.48917e-07
9.47756e-07
9.47756e-07
9.47756e-07
9.47756e-07
9.47756e-07
9.47756e-07
9.47756e-07
9.4907e-07
9.49447e-07
9.50024e-07
9.49243e-07
9.47755e-07
9.47757e-07
9.47756e-07
9.47757e-07
9.47756e-07
9.47757e-07
9.47756e-07
9.47757e-07
9.47755e-07
9.49502e-07
9.50172e-07
9.4918e-07
9.47756e-07
9.47756e-07
9.47756e-07
9.47756e-07
9.47757e-07
9.47756e-07
9.47756e-07
9.47756e-07
9.47756e-07
9.49492e-07
9.50188e-07
9.49228e-07
9.47755e-07
9.47757e-07
9.47756e-07
9.47757e-07
9.47756e-07
9.47757e-07
9.47756e-07
9.47757e-07
9.47755e-07
9.49495e-07
9.50189e-07
9.49986e-07
9.49067e-07
9.47756e-07
9.47756e-07
9.47756e-07
9.47756e-07
9.47756e-07
9.47756e-07
9.47756e-07
9.49284e-07
9.49495e-07
9.50162e-07
9.5001e-07
9.49364e-07
9.49044e-07
9.47756e-07
9.47757e-07
9.47756e-07
9.47757e-07
9.47756e-07
9.49251e-07
9.49414e-07
9.4954e-07
9.50001e-07
9.49361e-07
9.49069e-07
9.47755e-07
9.47756e-07
9.47755e-07
9.49284e-07
9.49414e-07
9.49515e-07
9.50144e-07
9.50004e-07
9.49447e-07
9.49502e-07
9.49492e-07
9.49495e-07
9.49495e-07
9.4954e-07
9.50144e-07
9.50024e-07
9.50172e-07
9.50188e-07
9.50189e-07
9.50162e-07
9.41087e-07
9.40353e-07
9.4029e-07
9.40339e-07
9.41097e-07
9.4112e-07
9.41104e-07
9.40457e-07
9.40027e-07
9.38865e-07
9.38866e-07
9.38865e-07
9.40178e-07
9.40474e-07
9.41112e-07
9.40457e-07
9.39991e-07
9.38866e-07
9.38867e-07
9.38866e-07
9.38867e-07
9.38866e-07
9.40155e-07
9.40472e-07
9.41115e-07
9.41087e-07
9.40027e-07
9.38866e-07
9.38867e-07
9.38866e-07
9.38867e-07
9.38866e-07
9.38867e-07
9.38866e-07
9.4018e-07
9.40558e-07
9.41135e-07
9.40353e-07
9.38866e-07
9.38867e-07
9.38866e-07
9.38868e-07
9.38867e-07
9.38868e-07
9.38866e-07
9.38867e-07
9.38866e-07
9.40612e-07
9.41282e-07
9.4029e-07
9.38866e-07
9.38866e-07
9.38867e-07
9.38867e-07
9.38867e-07
9.38867e-07
9.38867e-07
9.38866e-07
9.38866e-07
9.40603e-07
9.41299e-07
9.40339e-07
9.38866e-07
9.38867e-07
9.38866e-07
9.38868e-07
9.38867e-07
9.38868e-07
9.38866e-07
9.38867e-07
9.38866e-07
9.40606e-07
9.41299e-07
9.41097e-07
9.40178e-07
9.38866e-07
9.38867e-07
9.38866e-07
9.38867e-07
9.38866e-07
9.38867e-07
9.38866e-07
9.40395e-07
9.40605e-07
9.41273e-07
9.4112e-07
9.40474e-07
9.40155e-07
9.38866e-07
9.38867e-07
9.38866e-07
9.38867e-07
9.38866e-07
9.40362e-07
9.40525e-07
9.4065e-07
9.41112e-07
9.40472e-07
9.4018e-07
9.38866e-07
9.38866e-07
9.38866e-07
9.40395e-07
9.40525e-07
9.40626e-07
9.41255e-07
9.41115e-07
9.40558e-07
9.40612e-07
9.40603e-07
9.40606e-07
9.40605e-07
9.4065e-07
9.41255e-07
9.41134e-07
9.41282e-07
9.41299e-07
9.41299e-07
9.41273e-07
9.32198e-07
9.31464e-07
9.31401e-07
9.31449e-07
9.32207e-07
9.32231e-07
9.32214e-07
9.31567e-07
9.31138e-07
9.29976e-07
9.29977e-07
9.29976e-07
9.31288e-07
9.31585e-07
9.32222e-07
9.31567e-07
9.31101e-07
9.29976e-07
9.29978e-07
9.29977e-07
9.29978e-07
9.29976e-07
9.31265e-07
9.31582e-07
9.32225e-07
9.32198e-07
9.31138e-07
9.29976e-07
9.29977e-07
9.29977e-07
9.29977e-07
9.29977e-07
9.29977e-07
9.29976e-07
9.31291e-07
9.31668e-07
9.32245e-07
9.31464e-07
9.29976e-07
9.29978e-07
9.29977e-07
9.29978e-07
9.29977e-07
9.29978e-07
9.29977e-07
9.29978e-07
9.29976e-07
9.31723e-07
9.32393e-07
9.31401e-07
9.29977e-07
9.29977e-07
9.29977e-07
9.29977e-07
9.29977e-07
9.29977e-07
9.29977e-07
9.29977e-07
9.29977e-07
9.31713e-07
9.32409e-07
9.31449e-07
9.29976e-07
9.29978e-07
9.29977e-07
9.29978e-07
9.29977e-07
9.29978e-07
9.29977e-07
9.29978e-07
9.29976e-07
9.31716e-07
9.3241e-07
9.32207e-07
9.31288e-07
9.29976e-07
9.29977e-07
9.29977e-07
9.29977e-07
9.29977e-07
9.29977e-07
9.29976e-07
9.31505e-07
9.31716e-07
9.32383e-07
9.32231e-07
9.31585e-07
9.31265e-07
9.29976e-07
9.29978e-07
9.29977e-07
9.29978e-07
9.29976e-07
9.31472e-07
9.31636e-07
9.31761e-07
9.32222e-07
9.31582e-07
9.31291e-07
9.29976e-07
9.29977e-07
9.29976e-07
9.31505e-07
9.31636e-07
9.31736e-07
9.32365e-07
9.32225e-07
9.31668e-07
9.31723e-07
9.31713e-07
9.31716e-07
9.31716e-07
9.31761e-07
9.32365e-07
9.32245e-07
9.32393e-07
9.32409e-07
9.3241e-07
9.32383e-07
9.23308e-07
9.22574e-07
9.22511e-07
9.2256e-07
9.23318e-07
9.23341e-07
9.23325e-07
9.22678e-07
9.22248e-07
9.21087e-07
9.21087e-07
9.21086e-07
9.22399e-07
9.22695e-07
9.23333e-07
9.22678e-07
9.22212e-07
9.21087e-07
9.21088e-07
9.21087e-07
9.21088e-07
9.21087e-07
9.22376e-07
9.22693e-07
9.23336e-07
9.23308e-07
9.22248e-07
9.21087e-07
9.21088e-07
9.21087e-07
9.21087e-07
9.21087e-07
9.21088e-07
9.21087e-07
9.22401e-07
9.22779e-07
9.23355e-07
9.22574e-07
9.21087e-07
9.21088e-07
9.21087e-07
9.21088e-07
9.21087e-07
9.21088e-07
9.21087e-07
9.21088e-07
9.21086e-07
9.22833e-07
9.23503e-07
9.22511e-07
9.21087e-07
9.21087e-07
9.21087e-07
9.21087e-07
9.21087e-07
9.21087e-07
9.21087e-07
9.21087e-07
9.21087e-07
9.22824e-07
9.2352e-07
9.2256e-07
9.21087e-07
9.21088e-07
9.21087e-07
9.21088e-07
9.21087e-07
9.21088e-07
9.21087e-07
9.21088e-07
9.21086e-07
9.22827e-07
9.2352e-07
9.23318e-07
9.22399e-07
9.21087e-07
9.21088e-07
9.21087e-07
9.21087e-07
9.21087e-07
9.21088e-07
9.21087e-07
9.22616e-07
9.22826e-07
9.23494e-07
9.23341e-07
9.22695e-07
9.22376e-07
9.21087e-07
9.21088e-07
9.21087e-07
9.21088e-07
9.21087e-07
9.22583e-07
9.22746e-07
9.22871e-07
9.23333e-07
9.22693e-07
9.22401e-07
9.21087e-07
9.21087e-07
9.21087e-07
9.22616e-07
9.22746e-07
9.22847e-07
9.23476e-07
9.23336e-07
9.22779e-07
9.22833e-07
9.22824e-07
9.22827e-07
9.22826e-07
9.22871e-07
9.23476e-07
9.23355e-07
9.23503e-07
9.2352e-07
9.2352e-07
9.23494e-07
9.14419e-07
9.13685e-07
9.13622e-07
9.1367e-07
9.14428e-07
9.14452e-07
9.14436e-07
9.13788e-07
9.13359e-07
9.12197e-07
9.12198e-07
9.12197e-07
9.13509e-07
9.13806e-07
9.14443e-07
9.13788e-07
9.13322e-07
9.12197e-07
9.12199e-07
9.12198e-07
9.12199e-07
9.12197e-07
9.13486e-07
9.13803e-07
9.14446e-07
9.14419e-07
9.13359e-07
9.12197e-07
9.12198e-07
9.12197e-07
9.12198e-07
9.12197e-07
9.12198e-07
9.12197e-07
9.13512e-07
9.13889e-07
9.14466e-07
9.13685e-07
9.12197e-07
9.12199e-07
9.12197e-07
9.12199e-07
9.12198e-07
9.12199e-07
9.12197e-07
9.12199e-07
9.12197e-07
9.13944e-07
9.14614e-07
9.13622e-07
9.12198e-07
9.12198e-07
9.12198e-07
9.12198e-07
9.12198e-07
9.12198e-07
9.12198e-07
9.12198e-07
9.12198e-07
9.13934e-07
9.1463e-07
9.1367e-07
9.12197e-07
9.12199e-07
9.12197e-07
9.12199e-07
9.12198e-07
9.12199e-07
9.12197e-07
9.12199e-07
9.12197e-07
9.13937e-07
9.14631e-07
9.14428e-07
9.13509e-07
9.12197e-07
9.12198e-07
9.12197e-07
9.12198e-07
9.12197e-07
9.12198e-07
9.12197e-07
9.13726e-07
9.13937e-07
9.14604e-07
9.14452e-07
9.13806e-07
9.13486e-07
9.12197e-07
9.12199e-07
9.12198e-07
9.12199e-07
9.12197e-07
9.13693e-07
9.13856e-07
9.13982e-07
9.14443e-07
9.13803e-07
9.13512e-07
9.12197e-07
9.12198e-07
9.12197e-07
9.13726e-07
9.13856e-07
9.13957e-07
9.14586e-07
9.14446e-07
9.13889e-07
9.13944e-07
9.13934e-07
9.13937e-07
9.13937e-07
9.13982e-07
9.14586e-07
9.14466e-07
9.14614e-07
9.1463e-07
9.14631e-07
9.14604e-07
9.05529e-07
9.04795e-07
9.04732e-07
9.04781e-07
9.05539e-07
9.05562e-07
9.05546e-07
9.04899e-07
9.04469e-07
9.03307e-07
9.03308e-07
9.03307e-07
9.0462e-07
9.04916e-07
9.05554e-07
9.04899e-07
9.04433e-07
9.03308e-07
9.03309e-07
9.03308e-07
9.03309e-07
9.03308e-07
9.04597e-07
9.04914e-07
9.05557e-07
9.05529e-07
9.04469e-07
9.03308e-07
9.03309e-07
9.03308e-07
9.03308e-07
9.03308e-07
9.03309e-07
9.03308e-07
9.04622e-07
9.05e-07
9.05576e-07
9.04795e-07
9.03307e-07
9.03309e-07
9.03308e-07
9.03309e-07
9.03308e-07
9.03309e-07
9.03308e-07
9.03309e-07
9.03307e-07
9.05054e-07
9.05724e-07
9.04732e-07
9.03308e-07
9.03308e-07
9.03308e-07
9.03308e-07
9.03308e-07
9.03308e-07
9.03308e-07
9.03308e-07
9.03308e-07
9.05045e-07
9.05741e-07
9.0478e-07
9.03307e-07
9.03309e-07
9.03308e-07
9.03309e-07
9.03308e-07
9.03309e-07
9.03308e-07
9.03309e-07
9.03307e-07
9.05048e-07
9.05741e-07
9.05539e-07
9.0462e-07
9.03308e-07
9.03309e-07
9.03308e-07
9.03308e-07
9.03308e-07
9.03309e-07
9.03308e-07
9.04837e-07
9.05047e-07
9.05715e-07
9.05562e-07
9.04916e-07
9.04597e-07
9.03308e-07
9.03309e-07
9.03308e-07
9.03309e-07
9.03308e-07
9.04804e-07
9.04967e-07
9.05092e-07
9.05554e-07
9.04914e-07
9.04622e-07
9.03307e-07
9.03308e-07
9.03307e-07
9.04837e-07
9.04967e-07
9.05068e-07
9.05697e-07
9.05557e-07
9.05e-07
9.05054e-07
9.05045e-07
9.05048e-07
9.05047e-07
9.05092e-07
9.05696e-07
9.05576e-07
9.05724e-07
9.05741e-07
9.05741e-07
9.05715e-07
8.9664e-07
8.95906e-07
8.95843e-07
8.95891e-07
8.96649e-07
8.96673e-07
8.96656e-07
8.96009e-07
8.9558e-07
8.94418e-07
8.94419e-07
8.94418e-07
8.9573e-07
8.96027e-07
8.96664e-07
8.96009e-07
8.95543e-07
8.94418e-07
8.9442e-07
8.94419e-07
8.9442e-07
8.94418e-07
8.95707e-07
8.96024e-07
8.96667e-07
8.9664e-07
8.9558e-07
8.94418e-07
8.94419e-07
8.94418e-07
8.94419e-07
8.94418e-07
8.94419e-07
8.94418e-07
8.95733e-07
8.9611e-07
8.96687e-07
8.95906e-07
8.94418e-07
8.9442e-07
8.94418e-07
8.9442e-07
8.94419e-07
8.9442e-07
8.94418e-07
8.9442e-07
8.94418e-07
8.96165e-07
8.96835e-07
8.95843e-07
8.94419e-07
8.94419e-07
8.94419e-07
8.94419e-07
8.94419e-07
8.94419e-07
8.94419e-07
8.94419e-07
8.94419e-07
8.96155e-07
8.96851e-07
8.95891e-07
8.94418e-07
8.9442e-07
8.94418e-07
8.9442e-07
8.94419e-07
8.9442e-07
8.94418e-07
8.9442e-07
8.94418e-07
8.96158e-07
8.96852e-07
8.96649e-07
8.9573e-07
8.94418e-07
8.94419e-07
8.94418e-07
8.94419e-07
8.94418e-07
8.94419e-07
8.94418e-07
8.95947e-07
8.96158e-07
8.96825e-07
8.96672e-07
8.96027e-07
8.95707e-07
8.94418e-07
8.9442e-07
8.94419e-07
8.9442e-07
8.94418e-07
8.95914e-07
8.96077e-07
8.96203e-07
8.96664e-07
8.96024e-07
8.95732e-07
8.94418e-07
8.94419e-07
8.94418e-07
8.95947e-07
8.96077e-07
8.96178e-07
8.96807e-07
8.96667e-07
8.9611e-07
8.96165e-07
8.96155e-07
8.96158e-07
8.96158e-07
8.96203e-07
8.96807e-07
8.96687e-07
8.96835e-07
8.96851e-07
8.96852e-07
8.96825e-07
8.8775e-07
8.87016e-07
8.86953e-07
8.87002e-07
8.8776e-07
8.87783e-07
8.87767e-07
8.8712e-07
8.8669e-07
8.85528e-07
8.85529e-07
8.85528e-07
8.86841e-07
8.87137e-07
8.87775e-07
8.8712e-07
8.86653e-07
8.85529e-07
8.8553e-07
8.85529e-07
8.8553e-07
8.85529e-07
8.86818e-07
8.87135e-07
8.87778e-07
8.8775e-07
8.8669e-07
8.85529e-07
8.8553e-07
8.85529e-07
8.85529e-07
8.85529e-07
8.8553e-07
8.85529e-07
8.86843e-07
8.87221e-07
8.87797e-07
8.87016e-07
8.85528e-07
8.8553e-07
8.85529e-07
8.8553e-07
8.85529e-07
8.8553e-07
8.85529e-07
8.8553e-07
8.85528e-07
8.87275e-07
8.87945e-07
8.86953e-07
8.85529e-07
8.85529e-07
8.85529e-07
8.85529e-07
8.85529e-07
8.85529e-07
8.85529e-07
8.85529e-07
8.85529e-07
8.87266e-07
8.87962e-07
8.87001e-07
8.85528e-07
8.8553e-07
8.85529e-07
8.8553e-07
8.85529e-07
8.8553e-07
8.85529e-07
8.8553e-07
8.85528e-07
8.87269e-07
8.87962e-07
8.8776e-07
8.86841e-07
8.85529e-07
8.8553e-07
8.85529e-07
8.85529e-07
8.85529e-07
8.8553e-07
8.85529e-07
8.87058e-07
8.87268e-07
8.87936e-07
8.87783e-07
8.87137e-07
8.86818e-07
8.85529e-07
8.8553e-07
8.85529e-07
8.8553e-07
8.85529e-07
8.87025e-07
8.87188e-07
8.87313e-07
8.87774e-07
8.87135e-07
8.86843e-07
8.85528e-07
8.85529e-07
8.85529e-07
8.87058e-07
8.87188e-07
8.87289e-07
8.87918e-07
8.87778e-07
8.87221e-07
8.87275e-07
8.87266e-07
8.87269e-07
8.87268e-07
8.87313e-07
8.87917e-07
8.87797e-07
8.87945e-07
8.87962e-07
8.87962e-07
8.87936e-07
8.78861e-07
8.78127e-07
8.78064e-07
8.78112e-07
8.7887e-07
8.78893e-07
8.78877e-07
8.7823e-07
8.77801e-07
8.76639e-07
8.7664e-07
8.76639e-07
8.77951e-07
8.78248e-07
8.78885e-07
8.7823e-07
8.77764e-07
8.76639e-07
8.76641e-07
8.7664e-07
8.76641e-07
8.76639e-07
8.77928e-07
8.78245e-07
8.78888e-07
8.78861e-07
8.77801e-07
8.76639e-07
8.7664e-07
8.76639e-07
8.7664e-07
8.76639e-07
8.7664e-07
8.76639e-07
8.77954e-07
8.78331e-07
8.78908e-07
8.78126e-07
8.76639e-07
8.76641e-07
8.76639e-07
8.76641e-07
8.7664e-07
8.76641e-07
8.76639e-07
8.76641e-07
8.76639e-07
8.78386e-07
8.79056e-07
8.78064e-07
8.76639e-07
8.7664e-07
8.7664e-07
8.76639e-07
8.7664e-07
8.7664e-07
8.7664e-07
8.7664e-07
8.7664e-07
8.78376e-07
8.79072e-07
8.78112e-07
8.76639e-07
8.76641e-07
8.76639e-07
8.76641e-07
8.7664e-07
8.76641e-07
8.76639e-07
8.76641e-07
8.76639e-07