/*--------------------------------*- C++ -*----------------------------------*\
| =========                 |                                                 |
| \\      /  F ield         | OpenFOAM: The Open Source CFD Toolbox           |
|  \\    /   O peration     | Version:  v2012                                 |
|   \\  /    A nd           | Website:  www.openfoam.com                      |
|    \\/     M anipulation  |                                                 |
\*---------------------------------------------------------------------------*/
FoamFile
{
    version     2.0;
    format      ascii;
    class       volScalarField;
    location    "59";
    object      p;
}
// * * * * * * * * * * * * * * * * * * * * * * * * * * * * * * * * * * * * * //

dimensions      [0 2 -2 0 0 0 0];


internalField   nonuniform List<scalar> 
292667
(
1.12778e-06
1.11862e-06
1.11791e-06
1.11797e-06
1.11894e-06
1.12866e-06
1.11883e-06
1.11636e-06
1.11491e-06
1.11432e-06
1.11439e-06
1.11517e-06
1.11684e-06
1.11952e-06
1.11883e-06
1.11564e-06
1.11364e-06
1.11254e-06
1.11208e-06
1.11214e-06
1.11274e-06
1.11402e-06
1.11627e-06
1.11972e-06
1.12778e-06
1.11636e-06
1.11364e-06
1.11202e-06
1.11112e-06
1.11073e-06
1.11078e-06
1.11128e-06
1.11234e-06
1.11418e-06
1.11722e-06
1.12733e-06
1.11862e-06
1.11491e-06
1.11254e-06
1.11112e-06
1.11031e-06
1.10996e-06
1.11001e-06
1.11046e-06
1.1114e-06
1.11302e-06
1.1157e-06
1.12209e-06
1.11791e-06
1.11432e-06
1.11208e-06
1.11073e-06
1.10996e-06
1.10962e-06
1.10967e-06
1.1101e-06
1.111e-06
1.11253e-06
1.11508e-06
1.12052e-06
1.11797e-06
1.11439e-06
1.11214e-06
1.11078e-06
1.11001e-06
1.10967e-06
1.10972e-06
1.11015e-06
1.11106e-06
1.1126e-06
1.11517e-06
1.12083e-06
1.11894e-06
1.11517e-06
1.11274e-06
1.11128e-06
1.11046e-06
1.1101e-06
1.11015e-06
1.11062e-06
1.11158e-06
1.11324e-06
1.116e-06
1.12239e-06
1.12866e-06
1.11684e-06
1.11402e-06
1.11234e-06
1.1114e-06
1.111e-06
1.11106e-06
1.11158e-06
1.11268e-06
1.1146e-06
1.11775e-06
1.12721e-06
1.11952e-06
1.11627e-06
1.11418e-06
1.11302e-06
1.11253e-06
1.1126e-06
1.11324e-06
1.1146e-06
1.11698e-06
1.12305e-06
1.11972e-06
1.11722e-06
1.1157e-06
1.11508e-06
1.11517e-06
1.116e-06
1.11775e-06
1.12305e-06
1.12733e-06
1.12209e-06
1.12052e-06
1.12083e-06
1.12239e-06
1.12721e-06
1.10255e-06
1.10181e-06
1.10178e-06
1.10182e-06
1.10256e-06
1.10244e-06
1.1026e-06
1.10201e-06
1.10166e-06
1.10039e-06
1.10037e-06
1.10039e-06
1.10182e-06
1.10207e-06
1.10264e-06
1.10201e-06
1.10164e-06
1.10043e-06
1.10038e-06
1.10043e-06
1.10038e-06
1.10043e-06
1.1018e-06
1.10205e-06
1.10261e-06
1.10255e-06
1.10166e-06
1.10043e-06
1.10037e-06
1.1004e-06
1.10038e-06
1.1004e-06
1.10037e-06
1.10043e-06
1.10179e-06
1.10208e-06
1.10264e-06
1.10181e-06
1.10039e-06
1.10038e-06
1.1004e-06
1.10036e-06
1.10036e-06
1.10036e-06
1.1004e-06
1.10038e-06
1.10039e-06
1.10222e-06
1.10281e-06
1.10178e-06
1.10037e-06
1.10043e-06
1.10038e-06
1.10036e-06
1.10036e-06
1.10036e-06
1.10038e-06
1.10043e-06
1.10037e-06
1.10224e-06
1.10273e-06
1.10182e-06
1.10039e-06
1.10038e-06
1.1004e-06
1.10036e-06
1.10036e-06
1.10036e-06
1.1004e-06
1.10038e-06
1.10039e-06
1.10224e-06
1.10275e-06
1.10256e-06
1.10182e-06
1.10043e-06
1.10037e-06
1.1004e-06
1.10038e-06
1.1004e-06
1.10037e-06
1.10043e-06
1.10198e-06
1.10213e-06
1.10277e-06
1.10244e-06
1.10207e-06
1.1018e-06
1.10043e-06
1.10038e-06
1.10043e-06
1.10038e-06
1.10043e-06
1.10195e-06
1.1021e-06
1.10211e-06
1.10264e-06
1.10205e-06
1.10179e-06
1.10039e-06
1.10037e-06
1.10039e-06
1.10198e-06
1.1021e-06
1.10215e-06
1.10274e-06
1.10261e-06
1.10208e-06
1.10222e-06
1.10224e-06
1.10224e-06
1.10213e-06
1.10211e-06
1.10274e-06
1.10264e-06
1.10281e-06
1.10273e-06
1.10275e-06
1.10277e-06
1.09318e-06
1.0924e-06
1.09234e-06
1.09239e-06
1.09318e-06
1.09321e-06
1.0932e-06
1.09252e-06
1.0921e-06
1.09087e-06
1.09087e-06
1.09087e-06
1.09226e-06
1.09255e-06
1.0932e-06
1.09252e-06
1.09208e-06
1.09091e-06
1.09091e-06
1.09095e-06
1.09092e-06
1.09091e-06
1.09226e-06
1.09255e-06
1.0932e-06
1.09318e-06
1.0921e-06
1.09091e-06
1.09093e-06
1.09098e-06
1.09098e-06
1.09098e-06
1.09093e-06
1.09091e-06
1.09227e-06
1.09261e-06
1.09323e-06
1.0924e-06
1.09087e-06
1.09092e-06
1.09098e-06
1.09099e-06
1.09101e-06
1.09099e-06
1.09098e-06
1.09092e-06
1.09087e-06
1.09267e-06
1.09337e-06
1.09234e-06
1.09087e-06
1.09095e-06
1.09098e-06
1.09101e-06
1.09101e-06
1.09101e-06
1.09098e-06
1.09095e-06
1.09087e-06
1.09267e-06
1.09339e-06
1.09239e-06
1.09087e-06
1.09092e-06
1.09098e-06
1.09099e-06
1.09101e-06
1.09099e-06
1.09098e-06
1.09092e-06
1.09087e-06
1.09267e-06
1.09339e-06
1.09318e-06
1.09226e-06
1.09091e-06
1.09093e-06
1.09098e-06
1.09098e-06
1.09098e-06
1.09093e-06
1.09091e-06
1.09247e-06
1.09265e-06
1.09337e-06
1.09321e-06
1.09255e-06
1.09226e-06
1.09091e-06
1.09092e-06
1.09095e-06
1.09092e-06
1.09091e-06
1.09245e-06
1.09259e-06
1.09268e-06
1.0932e-06
1.09255e-06
1.09227e-06
1.09087e-06
1.09087e-06
1.09087e-06
1.09247e-06
1.09259e-06
1.09267e-06
1.09334e-06
1.0932e-06
1.09261e-06
1.09267e-06
1.09267e-06
1.09267e-06
1.09265e-06
1.09268e-06
1.09334e-06
1.09323e-06
1.09337e-06
1.09339e-06
1.09339e-06
1.09337e-06
1.08384e-06
1.08304e-06
1.08298e-06
1.08303e-06
1.08383e-06
1.08387e-06
1.08386e-06
1.08316e-06
1.08272e-06
1.08147e-06
1.08147e-06
1.08147e-06
1.08287e-06
1.08317e-06
1.08385e-06
1.08316e-06
1.08269e-06
1.08149e-06
1.08151e-06
1.08152e-06
1.08151e-06
1.08149e-06
1.08286e-06
1.08317e-06
1.08385e-06
1.08384e-06
1.08272e-06
1.08149e-06
1.08152e-06
1.08155e-06
1.08155e-06
1.08155e-06
1.08152e-06
1.08149e-06
1.08287e-06
1.08325e-06
1.08389e-06
1.08304e-06
1.08147e-06
1.08151e-06
1.08155e-06
1.08156e-06
1.08158e-06
1.08156e-06
1.08155e-06
1.08151e-06
1.08147e-06
1.0833e-06
1.08403e-06
1.08298e-06
1.08147e-06
1.08152e-06
1.08155e-06
1.08158e-06
1.08158e-06
1.08158e-06
1.08155e-06
1.08152e-06
1.08147e-06
1.08329e-06
1.08404e-06
1.08303e-06
1.08147e-06
1.08151e-06
1.08155e-06
1.08156e-06
1.08158e-06
1.08156e-06
1.08155e-06
1.08151e-06
1.08147e-06
1.08329e-06
1.08404e-06
1.08383e-06
1.08287e-06
1.08149e-06
1.08152e-06
1.08155e-06
1.08155e-06
1.08155e-06
1.08152e-06
1.08149e-06
1.08308e-06
1.08329e-06
1.08402e-06
1.08387e-06
1.08317e-06
1.08286e-06
1.08149e-06
1.08151e-06
1.08152e-06
1.08151e-06
1.08149e-06
1.08306e-06
1.08322e-06
1.08334e-06
1.08385e-06
1.08317e-06
1.08287e-06
1.08147e-06
1.08147e-06
1.08147e-06
1.08308e-06
1.08322e-06
1.08331e-06
1.084e-06
1.08385e-06
1.08325e-06
1.0833e-06
1.08329e-06
1.08329e-06
1.08329e-06
1.08334e-06
1.084e-06
1.08389e-06
1.08403e-06
1.08404e-06
1.08404e-06
1.08402e-06
1.07449e-06
1.07369e-06
1.07363e-06
1.07367e-06
1.07448e-06
1.07452e-06
1.07451e-06
1.0738e-06
1.07336e-06
1.0721e-06
1.0721e-06
1.0721e-06
1.07351e-06
1.07382e-06
1.0745e-06
1.0738e-06
1.07332e-06
1.07211e-06
1.07212e-06
1.07213e-06
1.07212e-06
1.07211e-06
1.07349e-06
1.07381e-06
1.07451e-06
1.07449e-06
1.07336e-06
1.07211e-06
1.07213e-06
1.07215e-06
1.07215e-06
1.07215e-06
1.07213e-06
1.07211e-06
1.07351e-06
1.0739e-06
1.07454e-06
1.07369e-06
1.0721e-06
1.07212e-06
1.07215e-06
1.07216e-06
1.07217e-06
1.07216e-06
1.07215e-06
1.07212e-06
1.0721e-06
1.07394e-06
1.07468e-06
1.07363e-06
1.0721e-06
1.07213e-06
1.07215e-06
1.07217e-06
1.07217e-06
1.07217e-06
1.07215e-06
1.07213e-06
1.0721e-06
1.07393e-06
1.07469e-06
1.07367e-06
1.0721e-06
1.07212e-06
1.07215e-06
1.07216e-06
1.07217e-06
1.07216e-06
1.07215e-06
1.07212e-06
1.0721e-06
1.07394e-06
1.07469e-06
1.07448e-06
1.07351e-06
1.07211e-06
1.07213e-06
1.07215e-06
1.07215e-06
1.07215e-06
1.07213e-06
1.07211e-06
1.07372e-06
1.07394e-06
1.07467e-06
1.07452e-06
1.07382e-06
1.07349e-06
1.07211e-06
1.07212e-06
1.07213e-06
1.07212e-06
1.07211e-06
1.07369e-06
1.07386e-06
1.07399e-06
1.0745e-06
1.07381e-06
1.07351e-06
1.0721e-06
1.0721e-06
1.0721e-06
1.07372e-06
1.07386e-06
1.07397e-06
1.07465e-06
1.07451e-06
1.0739e-06
1.07394e-06
1.07393e-06
1.07394e-06
1.07394e-06
1.07399e-06
1.07465e-06
1.07454e-06
1.07468e-06
1.07469e-06
1.07469e-06
1.07467e-06
1.06514e-06
1.06434e-06
1.06427e-06
1.06432e-06
1.06513e-06
1.06517e-06
1.06516e-06
1.06445e-06
1.064e-06
1.06274e-06
1.06274e-06
1.06274e-06
1.06415e-06
1.06446e-06
1.06515e-06
1.06445e-06
1.06397e-06
1.06274e-06
1.06275e-06
1.06276e-06
1.06275e-06
1.06274e-06
1.06413e-06
1.06446e-06
1.06516e-06
1.06514e-06
1.064e-06
1.06274e-06
1.06275e-06
1.06277e-06
1.06277e-06
1.06277e-06
1.06275e-06
1.06274e-06
1.06415e-06
1.06455e-06
1.06519e-06
1.06434e-06
1.06274e-06
1.06275e-06
1.06277e-06
1.06277e-06
1.06278e-06
1.06277e-06
1.06277e-06
1.06275e-06
1.06274e-06
1.06459e-06
1.06533e-06
1.06427e-06
1.06274e-06
1.06276e-06
1.06277e-06
1.06278e-06
1.06278e-06
1.06278e-06
1.06277e-06
1.06276e-06
1.06274e-06
1.06458e-06
1.06534e-06
1.06432e-06
1.06274e-06
1.06275e-06
1.06277e-06
1.06277e-06
1.06278e-06
1.06277e-06
1.06277e-06
1.06275e-06
1.06274e-06
1.06458e-06
1.06534e-06
1.06513e-06
1.06415e-06
1.06274e-06
1.06275e-06
1.06277e-06
1.06277e-06
1.06277e-06
1.06275e-06
1.06274e-06
1.06436e-06
1.06459e-06
1.06532e-06
1.06517e-06
1.06446e-06
1.06413e-06
1.06274e-06
1.06275e-06
1.06276e-06
1.06275e-06
1.06274e-06
1.06433e-06
1.06451e-06
1.06464e-06
1.06515e-06
1.06446e-06
1.06415e-06
1.06274e-06
1.06274e-06
1.06274e-06
1.06436e-06
1.06451e-06
1.06461e-06
1.0653e-06
1.06516e-06
1.06455e-06
1.06459e-06
1.06458e-06
1.06458e-06
1.06459e-06
1.06464e-06
1.0653e-06
1.06519e-06
1.06533e-06
1.06534e-06
1.06534e-06
1.06532e-06
1.05579e-06
1.05499e-06
1.05492e-06
1.05497e-06
1.05578e-06
1.05582e-06
1.05581e-06
1.0551e-06
1.05465e-06
1.05338e-06
1.05338e-06
1.05338e-06
1.0548e-06
1.05511e-06
1.0558e-06
1.0551e-06
1.05461e-06
1.05339e-06
1.05339e-06
1.05339e-06
1.05339e-06
1.05339e-06
1.05477e-06
1.05511e-06
1.05581e-06
1.05579e-06
1.05465e-06
1.05339e-06
1.05339e-06
1.0534e-06
1.0534e-06
1.0534e-06
1.05339e-06
1.05339e-06
1.0548e-06
1.05519e-06
1.05584e-06
1.05499e-06
1.05338e-06
1.05339e-06
1.0534e-06
1.0534e-06
1.05341e-06
1.0534e-06
1.0534e-06
1.05339e-06
1.05338e-06
1.05524e-06
1.05597e-06
1.05492e-06
1.05338e-06
1.05339e-06
1.0534e-06
1.05341e-06
1.05341e-06
1.05341e-06
1.0534e-06
1.05339e-06
1.05338e-06
1.05522e-06
1.05599e-06
1.05497e-06
1.05338e-06
1.05339e-06
1.0534e-06
1.0534e-06
1.05341e-06
1.0534e-06
1.0534e-06
1.05339e-06
1.05338e-06
1.05523e-06
1.05599e-06
1.05578e-06
1.0548e-06
1.05339e-06
1.05339e-06
1.0534e-06
1.0534e-06
1.0534e-06
1.05339e-06
1.05339e-06
1.05501e-06
1.05524e-06
1.05597e-06
1.05582e-06
1.05511e-06
1.05477e-06
1.05339e-06
1.05339e-06
1.05339e-06
1.05339e-06
1.05339e-06
1.05498e-06
1.05515e-06
1.05529e-06
1.0558e-06
1.05511e-06
1.0548e-06
1.05338e-06
1.05338e-06
1.05338e-06
1.05501e-06
1.05515e-06
1.05526e-06
1.05595e-06
1.05581e-06
1.05519e-06
1.05524e-06
1.05522e-06
1.05523e-06
1.05524e-06
1.05529e-06
1.05595e-06
1.05584e-06
1.05597e-06
1.05599e-06
1.05599e-06
1.05597e-06
1.04643e-06
1.04563e-06
1.04557e-06
1.04562e-06
1.04643e-06
1.04646e-06
1.04646e-06
1.04575e-06
1.04529e-06
1.04403e-06
1.04403e-06
1.04403e-06
1.04544e-06
1.04576e-06
1.04645e-06
1.04575e-06
1.04526e-06
1.04403e-06
1.04403e-06
1.04403e-06
1.04403e-06
1.04403e-06
1.04542e-06
1.04576e-06
1.04645e-06
1.04643e-06
1.04529e-06
1.04403e-06
1.04403e-06
1.04404e-06
1.04404e-06
1.04404e-06
1.04403e-06
1.04403e-06
1.04545e-06
1.04584e-06
1.04648e-06
1.04563e-06
1.04403e-06
1.04403e-06
1.04404e-06
1.04404e-06
1.04404e-06
1.04404e-06
1.04404e-06
1.04403e-06
1.04403e-06
1.04588e-06
1.04662e-06
1.04557e-06
1.04403e-06
1.04403e-06
1.04404e-06
1.04404e-06
1.04404e-06
1.04404e-06
1.04404e-06
1.04403e-06
1.04403e-06
1.04587e-06
1.04663e-06
1.04562e-06
1.04403e-06
1.04403e-06
1.04404e-06
1.04404e-06
1.04404e-06
1.04404e-06
1.04404e-06
1.04403e-06
1.04403e-06
1.04588e-06
1.04663e-06
1.04643e-06
1.04544e-06
1.04403e-06
1.04403e-06
1.04404e-06
1.04404e-06
1.04404e-06
1.04403e-06
1.04403e-06
1.04566e-06
1.04588e-06
1.04662e-06
1.04646e-06
1.04576e-06
1.04542e-06
1.04403e-06
1.04403e-06
1.04403e-06
1.04403e-06
1.04403e-06
1.04562e-06
1.0458e-06
1.04594e-06
1.04645e-06
1.04576e-06
1.04545e-06
1.04403e-06
1.04403e-06
1.04403e-06
1.04566e-06
1.0458e-06
1.04591e-06
1.0466e-06
1.04645e-06
1.04584e-06
1.04588e-06
1.04587e-06
1.04588e-06
1.04588e-06
1.04594e-06
1.0466e-06
1.04648e-06
1.04662e-06
1.04663e-06
1.04663e-06
1.04662e-06
1.03708e-06
1.03628e-06
1.03621e-06
1.03626e-06
1.03708e-06
1.03711e-06
1.0371e-06
1.03639e-06
1.03594e-06
1.03467e-06
1.03468e-06
1.03467e-06
1.03609e-06
1.03641e-06
1.0371e-06
1.03639e-06
1.03591e-06
1.03468e-06
1.03468e-06
1.03468e-06
1.03468e-06
1.03468e-06
1.03607e-06
1.0364e-06
1.0371e-06
1.03708e-06
1.03594e-06
1.03468e-06
1.03468e-06
1.03468e-06
1.03468e-06
1.03468e-06
1.03468e-06
1.03468e-06
1.03609e-06
1.03649e-06
1.03713e-06
1.03628e-06
1.03467e-06
1.03468e-06
1.03468e-06
1.03468e-06
1.03468e-06
1.03468e-06
1.03468e-06
1.03468e-06
1.03467e-06
1.03653e-06
1.03727e-06
1.03621e-06
1.03468e-06
1.03468e-06
1.03468e-06
1.03468e-06
1.03468e-06
1.03468e-06
1.03468e-06
1.03468e-06
1.03468e-06
1.03652e-06
1.03728e-06
1.03626e-06
1.03467e-06
1.03468e-06
1.03468e-06
1.03468e-06
1.03468e-06
1.03468e-06
1.03468e-06
1.03468e-06
1.03467e-06
1.03652e-06
1.03728e-06
1.03708e-06
1.03609e-06
1.03468e-06
1.03468e-06
1.03468e-06
1.03468e-06
1.03468e-06
1.03468e-06
1.03468e-06
1.0363e-06
1.03653e-06
1.03727e-06
1.03711e-06
1.03641e-06
1.03607e-06
1.03468e-06
1.03468e-06
1.03468e-06
1.03468e-06
1.03468e-06
1.03627e-06
1.03645e-06
1.03658e-06
1.0371e-06
1.0364e-06
1.03609e-06
1.03467e-06
1.03468e-06
1.03467e-06
1.0363e-06
1.03645e-06
1.03656e-06
1.03725e-06
1.0371e-06
1.03649e-06
1.03653e-06
1.03652e-06
1.03652e-06
1.03653e-06
1.03658e-06
1.03725e-06
1.03713e-06
1.03727e-06
1.03728e-06
1.03728e-06
1.03727e-06
1.02773e-06
1.02693e-06
1.02686e-06
1.02691e-06
1.02772e-06
1.02776e-06
1.02775e-06
1.02704e-06
1.02659e-06
1.02532e-06
1.02532e-06
1.02532e-06
1.02674e-06
1.02705e-06
1.02775e-06
1.02704e-06
1.02655e-06
1.02532e-06
1.02532e-06
1.02532e-06
1.02532e-06
1.02532e-06
1.02671e-06
1.02705e-06
1.02775e-06
1.02773e-06
1.02659e-06
1.02532e-06
1.02532e-06
1.02532e-06
1.02532e-06
1.02532e-06
1.02532e-06
1.02532e-06
1.02674e-06
1.02714e-06
1.02778e-06
1.02693e-06
1.02532e-06
1.02532e-06
1.02532e-06
1.02533e-06
1.02533e-06
1.02533e-06
1.02532e-06
1.02532e-06
1.02532e-06
1.02718e-06
1.02792e-06
1.02686e-06
1.02532e-06
1.02532e-06
1.02532e-06
1.02533e-06
1.02533e-06
1.02533e-06
1.02532e-06
1.02532e-06
1.02532e-06
1.02717e-06
1.02793e-06
1.02691e-06
1.02532e-06
1.02532e-06
1.02532e-06
1.02533e-06
1.02533e-06
1.02533e-06
1.02532e-06
1.02532e-06
1.02532e-06
1.02717e-06
1.02793e-06
1.02772e-06
1.02674e-06
1.02532e-06
1.02532e-06
1.02532e-06
1.02532e-06
1.02532e-06
1.02532e-06
1.02532e-06
1.02695e-06
1.02718e-06
1.02791e-06
1.02776e-06
1.02705e-06
1.02671e-06
1.02532e-06
1.02532e-06
1.02532e-06
1.02532e-06
1.02532e-06
1.02692e-06
1.0271e-06
1.02723e-06
1.02775e-06
1.02705e-06
1.02674e-06
1.02532e-06
1.02532e-06
1.02532e-06
1.02695e-06
1.0271e-06
1.02721e-06
1.0279e-06
1.02775e-06
1.02714e-06
1.02718e-06
1.02717e-06
1.02717e-06
1.02718e-06
1.02723e-06
1.0279e-06
1.02778e-06
1.02792e-06
1.02793e-06
1.02793e-06
1.02791e-06
1.01838e-06
1.01757e-06
1.01751e-06
1.01756e-06
1.01837e-06
1.01841e-06
1.0184e-06
1.01769e-06
1.01724e-06
1.01597e-06
1.01597e-06
1.01597e-06
1.01739e-06
1.0177e-06
1.01839e-06
1.01769e-06
1.0172e-06
1.01597e-06
1.01597e-06
1.01597e-06
1.01597e-06
1.01597e-06
1.01736e-06
1.0177e-06
1.0184e-06
1.01838e-06
1.01724e-06
1.01597e-06
1.01597e-06
1.01597e-06
1.01597e-06
1.01597e-06
1.01597e-06
1.01597e-06
1.01739e-06
1.01778e-06
1.01843e-06
1.01757e-06
1.01597e-06
1.01597e-06
1.01597e-06
1.01597e-06
1.01597e-06
1.01597e-06
1.01597e-06
1.01597e-06
1.01597e-06
1.01783e-06
1.01856e-06
1.01751e-06
1.01597e-06
1.01597e-06
1.01597e-06
1.01597e-06
1.01597e-06
1.01597e-06
1.01597e-06
1.01597e-06
1.01597e-06
1.01781e-06
1.01858e-06
1.01756e-06
1.01597e-06
1.01597e-06
1.01597e-06
1.01597e-06
1.01597e-06
1.01597e-06
1.01597e-06
1.01597e-06
1.01597e-06
1.01782e-06
1.01858e-06
1.01837e-06
1.01739e-06
1.01597e-06
1.01597e-06
1.01597e-06
1.01597e-06
1.01597e-06
1.01597e-06
1.01597e-06
1.0176e-06
1.01783e-06
1.01856e-06
1.01841e-06
1.0177e-06
1.01736e-06
1.01597e-06
1.01597e-06
1.01597e-06
1.01597e-06
1.01597e-06
1.01756e-06
1.01774e-06
1.01788e-06
1.01839e-06
1.0177e-06
1.01739e-06
1.01597e-06
1.01597e-06
1.01597e-06
1.0176e-06
1.01774e-06
1.01785e-06
1.01854e-06
1.0184e-06
1.01778e-06
1.01783e-06
1.01781e-06
1.01782e-06
1.01783e-06
1.01788e-06
1.01854e-06
1.01843e-06
1.01856e-06
1.01858e-06
1.01858e-06
1.01856e-06
1.00902e-06
1.00822e-06
1.00816e-06
1.0082e-06
1.00902e-06
1.00905e-06
1.00905e-06
1.00834e-06
1.00788e-06
1.00662e-06
1.00662e-06
1.00662e-06
1.00803e-06
1.00835e-06
1.00904e-06
1.00834e-06
1.00785e-06
1.00662e-06
1.00662e-06
1.00662e-06
1.00662e-06
1.00662e-06
1.00801e-06
1.00835e-06
1.00904e-06
1.00902e-06
1.00788e-06
1.00662e-06
1.00662e-06
1.00662e-06
1.00662e-06
1.00662e-06
1.00662e-06
1.00662e-06
1.00803e-06
1.00843e-06
1.00907e-06
1.00822e-06
1.00662e-06
1.00662e-06
1.00662e-06
1.00662e-06
1.00662e-06
1.00662e-06
1.00662e-06
1.00662e-06
1.00662e-06
1.00847e-06
1.00921e-06
1.00816e-06
1.00662e-06
1.00662e-06
1.00662e-06
1.00662e-06
1.00662e-06
1.00662e-06
1.00662e-06
1.00662e-06
1.00662e-06
1.00846e-06
1.00922e-06
1.0082e-06
1.00662e-06
1.00662e-06
1.00662e-06
1.00662e-06
1.00662e-06
1.00662e-06
1.00662e-06
1.00662e-06
1.00662e-06
1.00847e-06
1.00922e-06
1.00902e-06
1.00803e-06
1.00662e-06
1.00662e-06
1.00662e-06
1.00662e-06
1.00662e-06
1.00662e-06
1.00662e-06
1.00824e-06
1.00847e-06
1.00921e-06
1.00905e-06
1.00835e-06
1.00801e-06
1.00662e-06
1.00662e-06
1.00662e-06
1.00662e-06
1.00662e-06
1.00821e-06
1.00839e-06
1.00853e-06
1.00904e-06
1.00835e-06
1.00803e-06
1.00662e-06
1.00662e-06
1.00662e-06
1.00824e-06
1.00839e-06
1.0085e-06
1.00919e-06
1.00904e-06
1.00843e-06
1.00847e-06
1.00846e-06
1.00847e-06
1.00847e-06
1.00853e-06
1.00919e-06
1.00907e-06
1.00921e-06
1.00922e-06
1.00922e-06
1.00921e-06
9.99671e-07
9.98869e-07
9.98804e-07
9.98852e-07
9.99667e-07
9.99702e-07
9.99693e-07
9.98983e-07
9.9853e-07
9.97263e-07
9.97263e-07
9.97263e-07
9.9868e-07
9.98995e-07
9.99687e-07
9.98983e-07
9.98495e-07
9.97263e-07
9.97265e-07
9.97264e-07
9.97265e-07
9.97263e-07
9.98657e-07
9.98993e-07
9.99691e-07
9.9967e-07
9.9853e-07
9.97263e-07
9.97264e-07
9.97264e-07
9.97264e-07
9.97264e-07
9.97264e-07
9.97263e-07
9.98681e-07
9.99078e-07
9.99721e-07
9.98869e-07
9.97263e-07
9.97265e-07
9.97264e-07
9.97264e-07
9.97264e-07
9.97264e-07
9.97264e-07
9.97264e-07
9.97263e-07
9.99121e-07
9.99859e-07
9.98804e-07
9.97263e-07
9.97264e-07
9.97264e-07
9.97264e-07
9.97265e-07
9.97264e-07
9.97264e-07
9.97264e-07
9.97263e-07
9.99108e-07
9.9987e-07
9.98852e-07
9.97263e-07
9.97265e-07
9.97264e-07
9.97264e-07
9.97264e-07
9.97264e-07
9.97264e-07
9.97264e-07
9.97263e-07
9.99113e-07
9.99871e-07
9.99667e-07
9.9868e-07
9.97263e-07
9.97264e-07
9.97264e-07
9.97264e-07
9.97264e-07
9.97264e-07
9.97263e-07
9.98892e-07
9.9912e-07
9.99854e-07
9.99702e-07
9.98995e-07
9.98657e-07
9.97263e-07
9.97265e-07
9.97264e-07
9.97265e-07
9.97263e-07
9.98858e-07
9.99039e-07
9.99172e-07
9.99687e-07
9.98993e-07
9.98681e-07
9.97263e-07
9.97263e-07
9.97263e-07
9.98892e-07
9.99039e-07
9.99148e-07
9.99838e-07
9.99691e-07
9.99078e-07
9.99121e-07
9.99108e-07
9.99113e-07
9.9912e-07
9.99172e-07
9.99838e-07
9.99721e-07
9.99859e-07
9.9987e-07
9.99871e-07
9.99854e-07
9.90318e-07
9.89516e-07
9.89451e-07
9.89499e-07
9.90314e-07
9.90349e-07
9.90341e-07
9.8963e-07
9.89177e-07
9.8791e-07
9.87911e-07
9.8791e-07
9.89327e-07
9.89642e-07
9.90334e-07
9.8963e-07
9.89142e-07
9.8791e-07
9.87912e-07
9.87911e-07
9.87912e-07
9.8791e-07
9.89304e-07
9.8964e-07
9.90338e-07
9.90318e-07
9.89178e-07
9.8791e-07
9.87911e-07
9.87911e-07
9.87911e-07
9.87911e-07
9.87911e-07
9.8791e-07
9.89329e-07
9.89725e-07
9.90368e-07
9.89516e-07
9.8791e-07
9.87912e-07
9.87911e-07
9.87912e-07
9.87911e-07
9.87912e-07
9.87911e-07
9.87912e-07
9.8791e-07
9.89768e-07
9.90506e-07
9.89451e-07
9.87911e-07
9.87911e-07
9.87911e-07
9.87911e-07
9.87911e-07
9.87911e-07
9.87911e-07
9.87911e-07
9.87911e-07
9.89755e-07
9.90518e-07
9.89499e-07
9.8791e-07
9.87912e-07
9.87911e-07
9.87912e-07
9.87911e-07
9.87912e-07
9.87911e-07
9.87912e-07
9.8791e-07
9.8976e-07
9.90518e-07
9.90314e-07
9.89327e-07
9.8791e-07
9.87911e-07
9.87911e-07
9.87911e-07
9.87911e-07
9.87911e-07
9.8791e-07
9.89539e-07
9.89768e-07
9.90502e-07
9.90349e-07
9.89642e-07
9.89304e-07
9.8791e-07
9.87912e-07
9.87911e-07
9.87912e-07
9.8791e-07
9.89506e-07
9.89686e-07
9.8982e-07
9.90334e-07
9.8964e-07
9.89329e-07
9.8791e-07
9.87911e-07
9.8791e-07
9.89539e-07
9.89686e-07
9.89795e-07
9.90485e-07
9.90338e-07
9.89725e-07
9.89768e-07
9.89755e-07
9.8976e-07
9.89768e-07
9.8982e-07
9.90485e-07
9.90368e-07
9.90506e-07
9.90518e-07
9.90518e-07
9.90502e-07
9.80965e-07
9.80164e-07
9.80098e-07
9.80147e-07
9.80961e-07
9.80996e-07
9.80988e-07
9.80277e-07
9.79825e-07
9.78557e-07
9.78558e-07
9.78557e-07
9.79974e-07
9.8029e-07
9.80982e-07
9.80278e-07
9.79789e-07
9.78558e-07
9.78559e-07
9.78558e-07
9.78559e-07
9.78558e-07
9.79951e-07
9.80287e-07
9.80985e-07
9.80965e-07
9.79825e-07
9.78558e-07
9.78558e-07
9.78558e-07
9.78558e-07
9.78558e-07
9.78558e-07
9.78558e-07
9.79976e-07
9.80372e-07
9.81015e-07
9.80164e-07
9.78557e-07
9.78559e-07
9.78558e-07
9.78559e-07
9.78558e-07
9.78559e-07
9.78558e-07
9.78559e-07
9.78557e-07
9.80415e-07
9.81154e-07
9.80098e-07
9.78558e-07
9.78558e-07
9.78558e-07
9.78558e-07
9.78558e-07
9.78558e-07
9.78558e-07
9.78558e-07
9.78558e-07
9.80403e-07
9.81165e-07
9.80147e-07
9.78557e-07
9.78559e-07
9.78558e-07
9.78559e-07
9.78558e-07
9.78559e-07
9.78558e-07
9.78559e-07
9.78557e-07
9.80408e-07
9.81165e-07
9.80961e-07
9.79974e-07
9.78558e-07
9.78558e-07
9.78558e-07
9.78558e-07
9.78558e-07
9.78558e-07
9.78558e-07
9.80186e-07
9.80415e-07
9.81149e-07
9.80996e-07
9.8029e-07
9.79951e-07
9.78558e-07
9.78559e-07
9.78558e-07
9.78559e-07
9.78558e-07
9.80153e-07
9.80333e-07
9.80467e-07
9.80982e-07
9.80287e-07
9.79976e-07
9.78557e-07
9.78558e-07
9.78557e-07
9.80186e-07
9.80333e-07
9.80442e-07
9.81132e-07
9.80985e-07
9.80372e-07
9.80415e-07
9.80403e-07
9.80408e-07
9.80415e-07
9.80467e-07
9.81132e-07
9.81015e-07
9.81154e-07
9.81165e-07
9.81166e-07
9.81149e-07
9.71612e-07
9.70811e-07
9.70745e-07
9.70794e-07
9.71609e-07
9.71644e-07
9.71635e-07
9.70925e-07
9.70472e-07
9.69205e-07
9.69205e-07
9.69205e-07
9.70622e-07
9.70937e-07
9.71629e-07
9.70925e-07
9.70437e-07
9.69205e-07
9.69206e-07
9.69205e-07
9.69206e-07
9.69205e-07
9.70599e-07
9.70934e-07
9.71633e-07
9.71612e-07
9.70472e-07
9.69205e-07
9.69206e-07
9.69205e-07
9.69205e-07
9.69205e-07
9.69206e-07
9.69205e-07
9.70623e-07
9.71019e-07
9.71663e-07
9.70811e-07
9.69205e-07
9.69206e-07
9.69205e-07
9.69206e-07
9.69205e-07
9.69206e-07
9.69205e-07
9.69206e-07
9.69205e-07
9.71063e-07
9.71801e-07
9.70745e-07
9.69205e-07
9.69205e-07
9.69205e-07
9.69205e-07
9.69205e-07
9.69205e-07
9.69205e-07
9.69205e-07
9.69205e-07
9.7105e-07
9.71812e-07
9.70794e-07
9.69205e-07
9.69206e-07
9.69205e-07
9.69206e-07
9.69205e-07
9.69206e-07
9.69205e-07
9.69206e-07
9.69205e-07
9.71055e-07
9.71813e-07
9.71609e-07
9.70622e-07
9.69205e-07
9.69206e-07
9.69205e-07
9.69205e-07
9.69205e-07
9.69206e-07
9.69205e-07
9.70834e-07
9.71062e-07
9.71796e-07
9.71644e-07
9.70937e-07
9.70599e-07
9.69205e-07
9.69206e-07
9.69205e-07
9.69206e-07
9.69205e-07
9.708e-07
9.70981e-07
9.71114e-07
9.71629e-07
9.70934e-07
9.70623e-07
9.69205e-07
9.69205e-07
9.69205e-07
9.70834e-07
9.70981e-07
9.7109e-07
9.71779e-07
9.71633e-07
9.71019e-07
9.71063e-07
9.7105e-07
9.71055e-07
9.71062e-07
9.71114e-07
9.71779e-07
9.71663e-07
9.71801e-07
9.71812e-07
9.71813e-07
9.71796e-07
9.6226e-07
9.61458e-07
9.61393e-07
9.61441e-07
9.62256e-07
9.62291e-07
9.62283e-07
9.61572e-07
9.61119e-07
9.59852e-07
9.59852e-07
9.59852e-07
9.61269e-07
9.61584e-07
9.62276e-07
9.61572e-07
9.61084e-07
9.59852e-07
9.59853e-07
9.59853e-07
9.59853e-07
9.59852e-07
9.61246e-07
9.61582e-07
9.6228e-07
9.6226e-07
9.61119e-07
9.59852e-07
9.59853e-07
9.59852e-07
9.59853e-07
9.59852e-07
9.59853e-07
9.59852e-07
9.61271e-07
9.61667e-07
9.6231e-07
9.61458e-07
9.59852e-07
9.59854e-07
9.59852e-07
9.59853e-07
9.59852e-07
9.59853e-07
9.59852e-07
9.59854e-07
9.59852e-07
9.6171e-07
9.62448e-07
9.61393e-07
9.59852e-07
9.59853e-07
9.59853e-07
9.59852e-07
9.59853e-07
9.59852e-07
9.59853e-07
9.59853e-07
9.59852e-07
9.61697e-07
9.62459e-07
9.61441e-07
9.59852e-07
9.59854e-07
9.59852e-07
9.59853e-07
9.59852e-07
9.59853e-07
9.59852e-07
9.59853e-07
9.59852e-07
9.61702e-07
9.6246e-07
9.62256e-07
9.61269e-07
9.59852e-07
9.59853e-07
9.59852e-07
9.59853e-07
9.59852e-07
9.59853e-07
9.59852e-07
9.61481e-07
9.6171e-07
9.62443e-07
9.62291e-07
9.61584e-07
9.61246e-07
9.59852e-07
9.59853e-07
9.59853e-07
9.59854e-07
9.59852e-07
9.61447e-07
9.61628e-07
9.61762e-07
9.62276e-07
9.61582e-07
9.61271e-07
9.59852e-07
9.59852e-07
9.59852e-07
9.61481e-07
9.61628e-07
9.61737e-07
9.62427e-07
9.6228e-07
9.61667e-07
9.6171e-07
9.61697e-07
9.61702e-07
9.6171e-07
9.61762e-07
9.62427e-07
9.6231e-07
9.62448e-07
9.62459e-07
9.6246e-07
9.62443e-07
9.52907e-07
9.52105e-07
9.5204e-07
9.52088e-07
9.52903e-07
9.52938e-07
9.5293e-07
9.52219e-07
9.51767e-07
9.50499e-07
9.505e-07
9.50499e-07
9.51916e-07
9.52231e-07
9.52924e-07
9.52219e-07
9.51731e-07
9.50499e-07
9.50501e-07
9.505e-07
9.50501e-07
9.50499e-07
9.51893e-07
9.52229e-07
9.52927e-07
9.52907e-07
9.51767e-07
9.50499e-07
9.505e-07
9.505e-07
9.505e-07
9.505e-07
9.505e-07
9.50499e-07
9.51918e-07
9.52314e-07
9.52957e-07
9.52105e-07
9.50499e-07
9.50501e-07
9.505e-07
9.50501e-07
9.505e-07
9.50501e-07
9.505e-07
9.50501e-07
9.50499e-07
9.52357e-07
9.53095e-07
9.5204e-07
9.505e-07
9.505e-07
9.505e-07
9.505e-07
9.505e-07
9.505e-07
9.505e-07
9.505e-07
9.505e-07
9.52345e-07
9.53107e-07
9.52088e-07
9.50499e-07
9.50501e-07
9.505e-07
9.50501e-07
9.505e-07
9.50501e-07
9.505e-07
9.50501e-07
9.50499e-07
9.52349e-07
9.53107e-07
9.52903e-07
9.51916e-07
9.50499e-07
9.505e-07
9.505e-07
9.505e-07
9.505e-07
9.505e-07
9.50499e-07
9.52128e-07
9.52357e-07
9.53091e-07
9.52938e-07
9.52231e-07
9.51893e-07
9.50499e-07
9.50501e-07
9.505e-07
9.50501e-07
9.50499e-07
9.52095e-07
9.52275e-07
9.52409e-07
9.52924e-07
9.52229e-07
9.51918e-07
9.50499e-07
9.505e-07
9.50499e-07
9.52128e-07
9.52275e-07
9.52384e-07
9.53074e-07
9.52927e-07
9.52314e-07
9.52357e-07
9.52345e-07
9.52349e-07
9.52357e-07
9.52409e-07
9.53074e-07
9.52957e-07
9.53095e-07
9.53107e-07
9.53107e-07
9.53091e-07
9.43554e-07
9.42753e-07
9.42687e-07
9.42736e-07
9.4355e-07
9.43585e-07
9.43577e-07
9.42867e-07
9.42414e-07
9.41146e-07
9.41147e-07
9.41146e-07
9.42563e-07
9.42879e-07
9.43571e-07
9.42867e-07
9.42378e-07
9.41147e-07
9.41148e-07
9.41147e-07
9.41148e-07
9.41147e-07
9.4254e-07
9.42876e-07
9.43574e-07
9.43554e-07
9.42414e-07
9.41147e-07
9.41147e-07
9.41147e-07
9.41147e-07
9.41147e-07
9.41147e-07
9.41147e-07
9.42565e-07
9.42961e-07
9.43604e-07
9.42753e-07
9.41146e-07
9.41148e-07
9.41147e-07
9.41148e-07
9.41147e-07
9.41148e-07
9.41147e-07
9.41148e-07
9.41146e-07
9.43005e-07
9.43743e-07
9.42687e-07
9.41147e-07
9.41147e-07
9.41147e-07
9.41147e-07
9.41147e-07
9.41147e-07
9.41147e-07
9.41147e-07
9.41147e-07
9.42992e-07
9.43754e-07
9.42736e-07
9.41146e-07
9.41148e-07
9.41147e-07
9.41148e-07
9.41147e-07
9.41148e-07
9.41147e-07
9.41148e-07
9.41146e-07
9.42997e-07
9.43755e-07
9.4355e-07
9.42563e-07
9.41147e-07
9.41147e-07
9.41147e-07
9.41147e-07
9.41147e-07
9.41147e-07
9.41147e-07
9.42775e-07
9.43004e-07
9.43738e-07
9.43585e-07
9.42879e-07
9.4254e-07
9.41147e-07
9.41148e-07
9.41147e-07
9.41148e-07
9.41147e-07
9.42742e-07
9.42922e-07
9.43056e-07
9.43571e-07
9.42876e-07
9.42565e-07
9.41146e-07
9.41147e-07
9.41146e-07
9.42775e-07
9.42922e-07
9.43032e-07
9.43721e-07
9.43574e-07
9.42961e-07
9.43005e-07
9.42992e-07
9.42997e-07
9.43004e-07
9.43056e-07
9.43721e-07
9.43604e-07
9.43743e-07
9.43754e-07
9.43755e-07
9.43738e-07
9.34201e-07
9.334e-07
9.33335e-07
9.33383e-07
9.34198e-07
9.34233e-07
9.34224e-07
9.33514e-07
9.33061e-07
9.31794e-07
9.31794e-07
9.31794e-07
9.33211e-07
9.33526e-07
9.34218e-07
9.33514e-07
9.33026e-07
9.31794e-07
9.31795e-07
9.31794e-07
9.31795e-07
9.31794e-07
9.33188e-07
9.33524e-07
9.34222e-07
9.34201e-07
9.33061e-07
9.31794e-07
9.31795e-07
9.31794e-07
9.31794e-07
9.31794e-07
9.31795e-07
9.31794e-07
9.33212e-07
9.33608e-07
9.34252e-07
9.334e-07
9.31794e-07
9.31795e-07
9.31794e-07
9.31795e-07
9.31794e-07
9.31795e-07
9.31794e-07
9.31795e-07
9.31794e-07
9.33652e-07
9.3439e-07
9.33334e-07
9.31794e-07
9.31794e-07
9.31794e-07
9.31794e-07
9.31794e-07
9.31794e-07
9.31794e-07
9.31794e-07
9.31794e-07
9.33639e-07
9.34401e-07
9.33383e-07
9.31794e-07
9.31795e-07
9.31794e-07
9.31795e-07
9.31794e-07
9.31795e-07
9.31794e-07
9.31795e-07
9.31794e-07
9.33644e-07
9.34402e-07
9.34198e-07
9.33211e-07
9.31794e-07
9.31795e-07
9.31794e-07
9.31794e-07
9.31794e-07
9.31795e-07
9.31794e-07
9.33423e-07
9.33651e-07
9.34385e-07
9.34233e-07
9.33526e-07
9.33188e-07
9.31794e-07
9.31795e-07
9.31794e-07
9.31795e-07
9.31794e-07
9.33389e-07
9.3357e-07
9.33703e-07
9.34218e-07
9.33524e-07
9.33212e-07
9.31794e-07
9.31794e-07
9.31794e-07
9.33423e-07
9.3357e-07
9.33679e-07
9.34368e-07
9.34222e-07
9.33608e-07
9.33652e-07
9.33639e-07
9.33644e-07
9.33651e-07
9.33703e-07
9.34368e-07
9.34252e-07
9.3439e-07
9.34401e-07
9.34402e-07
9.34385e-07
9.24849e-07
9.24047e-07
9.23982e-07
9.2403e-07
9.24845e-07
9.2488e-07
9.24872e-07
9.24161e-07
9.23708e-07
9.22441e-07
9.22442e-07
9.22441e-07
9.23858e-07
9.24173e-07
9.24865e-07
9.24161e-07
9.23673e-07
9.22441e-07
9.22443e-07
9.22442e-07
9.22443e-07
9.22441e-07
9.23835e-07
9.24171e-07
9.24869e-07
9.24849e-07
9.23708e-07
9.22441e-07
9.22442e-07
9.22441e-07
9.22442e-07
9.22441e-07
9.22442e-07
9.22441e-07
9.2386e-07
9.24256e-07
9.24899e-07
9.24047e-07
9.22441e-07
9.22443e-07
9.22441e-07
9.22442e-07
9.22442e-07
9.22442e-07
9.22441e-07
9.22443e-07
9.22441e-07
9.24299e-07
9.25037e-07
9.23982e-07
9.22441e-07
9.22442e-07
9.22442e-07
9.22441e-07
9.22442e-07
9.22441e-07
9.22442e-07
9.22442e-07
9.22441e-07
9.24286e-07
9.25048e-07
9.2403e-07
9.22441e-07
9.22443e-07
9.22441e-07
9.22442e-07
9.22441e-07
9.22442e-07