/*--------------------------------*- C++ -*----------------------------------*\
| =========                 |                                                 |
| \\      /  F ield         | OpenFOAM: The Open Source CFD Toolbox           |
|  \\    /   O peration     | Version:  v2012                                 |
|   \\  /    A nd           | Website:  www.openfoam.com                      |
|    \\/     M anipulation  |                                                 |
\*---------------------------------------------------------------------------*/
FoamFile
{
    version     2.0;
    format      ascii;
    class       volScalarField;
    location    "62";
    object      p;
}
// * * * * * * * * * * * * * * * * * * * * * * * * * * * * * * * * * * * * * //

dimensions      [0 2 -2 0 0 0 0];


internalField   nonuniform List<scalar> 
292667
(
1.10797e-06
1.09887e-06
1.09817e-06
1.09823e-06
1.09918e-06
1.10884e-06
1.09908e-06
1.09667e-06
1.09524e-06
1.09466e-06
1.09474e-06
1.09549e-06
1.09713e-06
1.09976e-06
1.09908e-06
1.09596e-06
1.094e-06
1.09292e-06
1.09246e-06
1.09252e-06
1.09311e-06
1.09437e-06
1.09657e-06
1.09994e-06
1.10797e-06
1.09667e-06
1.094e-06
1.09241e-06
1.09152e-06
1.09114e-06
1.09119e-06
1.09168e-06
1.09272e-06
1.09452e-06
1.0975e-06
1.10749e-06
1.09887e-06
1.09524e-06
1.09292e-06
1.09152e-06
1.09073e-06
1.09038e-06
1.09043e-06
1.09088e-06
1.0918e-06
1.09339e-06
1.09602e-06
1.1023e-06
1.09817e-06
1.09466e-06
1.09246e-06
1.09114e-06
1.09038e-06
1.09006e-06
1.0901e-06
1.09053e-06
1.09141e-06
1.09291e-06
1.09541e-06
1.10075e-06
1.09823e-06
1.09474e-06
1.09252e-06
1.09119e-06
1.09043e-06
1.0901e-06
1.09015e-06
1.09058e-06
1.09146e-06
1.09298e-06
1.09549e-06
1.10105e-06
1.09918e-06
1.09549e-06
1.09311e-06
1.09168e-06
1.09088e-06
1.09053e-06
1.09058e-06
1.09103e-06
1.09197e-06
1.0936e-06
1.09631e-06
1.10259e-06
1.10884e-06
1.09713e-06
1.09437e-06
1.09272e-06
1.0918e-06
1.09141e-06
1.09146e-06
1.09197e-06
1.09305e-06
1.09494e-06
1.09802e-06
1.10736e-06
1.09976e-06
1.09657e-06
1.09452e-06
1.09339e-06
1.09291e-06
1.09298e-06
1.0936e-06
1.09494e-06
1.09727e-06
1.10326e-06
1.09994e-06
1.0975e-06
1.09602e-06
1.09541e-06
1.09549e-06
1.09631e-06
1.09802e-06
1.10326e-06
1.10749e-06
1.1023e-06
1.10075e-06
1.10105e-06
1.10259e-06
1.10736e-06
1.0831e-06
1.08238e-06
1.08235e-06
1.0824e-06
1.08311e-06
1.08298e-06
1.08314e-06
1.08258e-06
1.08223e-06
1.08099e-06
1.08097e-06
1.08099e-06
1.08239e-06
1.08263e-06
1.08318e-06
1.08258e-06
1.08221e-06
1.08103e-06
1.08099e-06
1.08103e-06
1.08099e-06
1.08104e-06
1.08237e-06
1.08262e-06
1.08316e-06
1.0831e-06
1.08223e-06
1.08104e-06
1.08098e-06
1.081e-06
1.08099e-06
1.081e-06
1.08098e-06
1.08104e-06
1.08237e-06
1.08265e-06
1.08319e-06
1.08238e-06
1.08099e-06
1.08099e-06
1.081e-06
1.08096e-06
1.08097e-06
1.08096e-06
1.081e-06
1.08099e-06
1.08099e-06
1.08279e-06
1.08335e-06
1.08235e-06
1.08097e-06
1.08103e-06
1.08099e-06
1.08097e-06
1.08096e-06
1.08097e-06
1.08099e-06
1.08103e-06
1.08097e-06
1.08281e-06
1.08328e-06
1.0824e-06
1.08099e-06
1.08099e-06
1.081e-06
1.08096e-06
1.08097e-06
1.08096e-06
1.081e-06
1.08099e-06
1.08099e-06
1.08281e-06
1.0833e-06
1.08311e-06
1.08239e-06
1.08104e-06
1.08098e-06
1.081e-06
1.08099e-06
1.081e-06
1.08098e-06
1.08104e-06
1.08256e-06
1.0827e-06
1.08331e-06
1.08298e-06
1.08263e-06
1.08237e-06
1.08104e-06
1.08099e-06
1.08103e-06
1.08099e-06
1.08104e-06
1.08253e-06
1.08268e-06
1.08267e-06
1.08318e-06
1.08262e-06
1.08237e-06
1.08099e-06
1.08097e-06
1.08099e-06
1.08256e-06
1.08268e-06
1.08272e-06
1.08328e-06
1.08316e-06
1.08265e-06
1.08279e-06
1.08281e-06
1.08281e-06
1.0827e-06
1.08267e-06
1.08328e-06
1.08319e-06
1.08335e-06
1.08328e-06
1.0833e-06
1.08331e-06
1.07389e-06
1.07313e-06
1.07307e-06
1.07312e-06
1.07389e-06
1.07392e-06
1.07391e-06
1.07325e-06
1.07284e-06
1.07164e-06
1.07164e-06
1.07164e-06
1.07299e-06
1.07328e-06
1.07391e-06
1.07325e-06
1.07282e-06
1.07169e-06
1.07169e-06
1.07172e-06
1.07169e-06
1.07169e-06
1.07299e-06
1.07328e-06
1.07391e-06
1.07389e-06
1.07284e-06
1.07169e-06
1.0717e-06
1.07175e-06
1.07175e-06
1.07175e-06
1.0717e-06
1.07169e-06
1.073e-06
1.07334e-06
1.07394e-06
1.07313e-06
1.07164e-06
1.07169e-06
1.07175e-06
1.07176e-06
1.07178e-06
1.07176e-06
1.07175e-06
1.07169e-06
1.07164e-06
1.0734e-06
1.07408e-06
1.07307e-06
1.07164e-06
1.07172e-06
1.07175e-06
1.07178e-06
1.07178e-06
1.07178e-06
1.07175e-06
1.07172e-06
1.07164e-06
1.0734e-06
1.0741e-06
1.07312e-06
1.07164e-06
1.07169e-06
1.07175e-06
1.07176e-06
1.07178e-06
1.07176e-06
1.07175e-06
1.07169e-06
1.07164e-06
1.0734e-06
1.0741e-06
1.0739e-06
1.07299e-06
1.07169e-06
1.0717e-06
1.07175e-06
1.07175e-06
1.07175e-06
1.0717e-06
1.07169e-06
1.07321e-06
1.07339e-06
1.07408e-06
1.07392e-06
1.07328e-06
1.07299e-06
1.07169e-06
1.07169e-06
1.07172e-06
1.07169e-06
1.07169e-06
1.07319e-06
1.07333e-06
1.07342e-06
1.07391e-06
1.07328e-06
1.073e-06
1.07164e-06
1.07164e-06
1.07164e-06
1.07321e-06
1.07333e-06
1.0734e-06
1.07405e-06
1.07391e-06
1.07334e-06
1.0734e-06
1.0734e-06
1.0734e-06
1.07339e-06
1.07342e-06
1.07405e-06
1.07394e-06
1.07408e-06
1.0741e-06
1.0741e-06
1.07408e-06
1.06471e-06
1.06394e-06
1.06388e-06
1.06392e-06
1.06471e-06
1.06474e-06
1.06473e-06
1.06405e-06
1.06362e-06
1.06241e-06
1.06241e-06
1.06241e-06
1.06377e-06
1.06407e-06
1.06473e-06
1.06405e-06
1.06359e-06
1.06243e-06
1.06244e-06
1.06246e-06
1.06244e-06
1.06243e-06
1.06376e-06
1.06407e-06
1.06473e-06
1.06471e-06
1.06362e-06
1.06243e-06
1.06245e-06
1.06249e-06
1.06249e-06
1.06249e-06
1.06245e-06
1.06243e-06
1.06377e-06
1.06414e-06
1.06476e-06
1.06394e-06
1.06241e-06
1.06244e-06
1.06249e-06
1.0625e-06
1.06252e-06
1.0625e-06
1.06249e-06
1.06244e-06
1.06241e-06
1.0642e-06
1.0649e-06
1.06388e-06
1.06241e-06
1.06246e-06
1.06249e-06
1.06252e-06
1.06252e-06
1.06252e-06
1.06249e-06
1.06246e-06
1.06241e-06
1.06419e-06
1.06491e-06
1.06392e-06
1.06241e-06
1.06244e-06
1.06249e-06
1.0625e-06
1.06252e-06
1.0625e-06
1.06249e-06
1.06244e-06
1.06241e-06
1.06419e-06
1.06491e-06
1.06471e-06
1.06377e-06
1.06243e-06
1.06245e-06
1.06249e-06
1.06249e-06
1.06249e-06
1.06245e-06
1.06243e-06
1.06398e-06
1.06419e-06
1.06489e-06
1.06474e-06
1.06407e-06
1.06376e-06
1.06243e-06
1.06244e-06
1.06246e-06
1.06244e-06
1.06243e-06
1.06396e-06
1.06412e-06
1.06423e-06
1.06473e-06
1.06407e-06
1.06377e-06
1.06241e-06
1.06241e-06
1.06241e-06
1.06398e-06
1.06412e-06
1.06421e-06
1.06487e-06
1.06473e-06
1.06414e-06
1.0642e-06
1.06419e-06
1.06419e-06
1.06419e-06
1.06423e-06
1.06487e-06
1.06476e-06
1.0649e-06
1.06491e-06
1.06491e-06
1.06489e-06
1.05552e-06
1.05475e-06
1.05469e-06
1.05473e-06
1.05553e-06
1.05556e-06
1.05554e-06
1.05486e-06
1.05442e-06
1.0532e-06
1.0532e-06
1.0532e-06
1.05457e-06
1.05488e-06
1.05554e-06
1.05486e-06
1.05439e-06
1.05321e-06
1.05322e-06
1.05323e-06
1.05322e-06
1.05321e-06
1.05455e-06
1.05487e-06
1.05555e-06
1.05552e-06
1.05442e-06
1.05321e-06
1.05323e-06
1.05325e-06
1.05325e-06
1.05325e-06
1.05323e-06
1.05321e-06
1.05457e-06
1.05496e-06
1.05557e-06
1.05475e-06
1.0532e-06
1.05322e-06
1.05325e-06
1.05326e-06
1.05327e-06
1.05326e-06
1.05325e-06
1.05322e-06
1.0532e-06
1.05501e-06
1.05572e-06
1.05469e-06
1.0532e-06
1.05323e-06
1.05325e-06
1.05327e-06
1.05327e-06
1.05327e-06
1.05325e-06
1.05323e-06
1.0532e-06
1.055e-06
1.05573e-06
1.05473e-06
1.0532e-06
1.05322e-06
1.05325e-06
1.05326e-06
1.05327e-06
1.05326e-06
1.05325e-06
1.05322e-06
1.0532e-06
1.055e-06
1.05573e-06
1.05553e-06
1.05457e-06
1.05321e-06
1.05323e-06
1.05325e-06
1.05325e-06
1.05325e-06
1.05323e-06
1.05321e-06
1.05479e-06
1.055e-06
1.05571e-06
1.05556e-06
1.05488e-06
1.05455e-06
1.05321e-06
1.05322e-06
1.05323e-06
1.05322e-06
1.05321e-06
1.05476e-06
1.05492e-06
1.05505e-06
1.05554e-06
1.05487e-06
1.05457e-06
1.0532e-06
1.0532e-06
1.0532e-06
1.05479e-06
1.05492e-06
1.05502e-06
1.05569e-06
1.05555e-06
1.05496e-06
1.05501e-06
1.055e-06
1.055e-06
1.055e-06
1.05505e-06
1.05569e-06
1.05557e-06
1.05572e-06
1.05573e-06
1.05573e-06
1.05571e-06
1.04634e-06
1.04556e-06
1.0455e-06
1.04555e-06
1.04634e-06
1.04637e-06
1.04636e-06
1.04567e-06
1.04523e-06
1.04401e-06
1.04401e-06
1.04401e-06
1.04538e-06
1.04569e-06
1.04636e-06
1.04567e-06
1.0452e-06
1.04401e-06
1.04402e-06
1.04402e-06
1.04402e-06
1.04401e-06
1.04536e-06
1.04569e-06
1.04636e-06
1.04634e-06
1.04523e-06
1.04401e-06
1.04402e-06
1.04403e-06
1.04403e-06
1.04403e-06
1.04402e-06
1.04401e-06
1.04538e-06
1.04577e-06
1.04639e-06
1.04556e-06
1.04401e-06
1.04402e-06
1.04403e-06
1.04404e-06
1.04405e-06
1.04404e-06
1.04403e-06
1.04402e-06
1.04401e-06
1.04582e-06
1.04653e-06
1.0455e-06
1.04401e-06
1.04402e-06
1.04403e-06
1.04405e-06
1.04405e-06
1.04405e-06
1.04403e-06
1.04402e-06
1.04401e-06
1.04581e-06
1.04654e-06
1.04555e-06
1.04401e-06
1.04402e-06
1.04403e-06
1.04404e-06
1.04405e-06
1.04404e-06
1.04403e-06
1.04402e-06
1.04401e-06
1.04581e-06
1.04654e-06
1.04634e-06
1.04538e-06
1.04401e-06
1.04402e-06
1.04403e-06
1.04403e-06
1.04403e-06
1.04402e-06
1.04401e-06
1.04559e-06
1.04581e-06
1.04652e-06
1.04637e-06
1.04569e-06
1.04536e-06
1.04401e-06
1.04402e-06
1.04402e-06
1.04402e-06
1.04401e-06
1.04556e-06
1.04573e-06
1.04586e-06
1.04636e-06
1.04569e-06
1.04538e-06
1.04401e-06
1.04401e-06
1.04401e-06
1.04559e-06
1.04573e-06
1.04584e-06
1.04651e-06
1.04636e-06
1.04577e-06
1.04582e-06
1.04581e-06
1.04581e-06
1.04581e-06
1.04586e-06
1.04651e-06
1.04639e-06
1.04653e-06
1.04654e-06
1.04654e-06
1.04652e-06
1.03715e-06
1.03638e-06
1.03631e-06
1.03636e-06
1.03715e-06
1.03718e-06
1.03717e-06
1.03649e-06
1.03604e-06
1.03481e-06
1.03482e-06
1.03481e-06
1.03619e-06
1.0365e-06
1.03717e-06
1.03649e-06
1.03601e-06
1.03482e-06
1.03482e-06
1.03482e-06
1.03482e-06
1.03482e-06
1.03617e-06
1.0365e-06
1.03717e-06
1.03715e-06
1.03604e-06
1.03482e-06
1.03482e-06
1.03483e-06
1.03483e-06
1.03483e-06
1.03482e-06
1.03482e-06
1.03619e-06
1.03658e-06
1.0372e-06
1.03638e-06
1.03481e-06
1.03482e-06
1.03483e-06
1.03483e-06
1.03484e-06
1.03483e-06
1.03483e-06
1.03482e-06
1.03481e-06
1.03663e-06
1.03734e-06
1.03631e-06
1.03482e-06
1.03482e-06
1.03483e-06
1.03484e-06
1.03484e-06
1.03484e-06
1.03483e-06
1.03482e-06
1.03482e-06
1.03662e-06
1.03736e-06
1.03636e-06
1.03481e-06
1.03482e-06
1.03483e-06
1.03483e-06
1.03484e-06
1.03483e-06
1.03483e-06
1.03482e-06
1.03481e-06
1.03662e-06
1.03736e-06
1.03715e-06
1.03619e-06
1.03482e-06
1.03482e-06
1.03483e-06
1.03483e-06
1.03483e-06
1.03482e-06
1.03482e-06
1.03641e-06
1.03663e-06
1.03734e-06
1.03718e-06
1.0365e-06
1.03617e-06
1.03482e-06
1.03482e-06
1.03482e-06
1.03482e-06
1.03482e-06
1.03637e-06
1.03655e-06
1.03668e-06
1.03717e-06
1.0365e-06
1.03619e-06
1.03481e-06
1.03482e-06
1.03481e-06
1.03641e-06
1.03655e-06
1.03665e-06
1.03732e-06
1.03717e-06
1.03658e-06
1.03663e-06
1.03662e-06
1.03662e-06
1.03663e-06
1.03668e-06
1.03732e-06
1.0372e-06
1.03734e-06
1.03736e-06
1.03736e-06
1.03734e-06
1.02796e-06
1.02719e-06
1.02712e-06
1.02717e-06
1.02796e-06
1.028e-06
1.02798e-06
1.0273e-06
1.02685e-06
1.02562e-06
1.02563e-06
1.02562e-06
1.027e-06
1.02731e-06
1.02798e-06
1.0273e-06
1.02682e-06
1.02563e-06
1.02563e-06
1.02563e-06
1.02563e-06
1.02563e-06
1.02698e-06
1.02731e-06
1.02799e-06
1.02796e-06
1.02685e-06
1.02563e-06
1.02563e-06
1.02563e-06
1.02563e-06
1.02563e-06
1.02563e-06
1.02563e-06
1.027e-06
1.02739e-06
1.02801e-06
1.02719e-06
1.02562e-06
1.02563e-06
1.02563e-06
1.02564e-06
1.02564e-06
1.02564e-06
1.02563e-06
1.02563e-06
1.02562e-06
1.02744e-06
1.02815e-06
1.02712e-06
1.02563e-06
1.02563e-06
1.02563e-06
1.02564e-06
1.02564e-06
1.02564e-06
1.02563e-06
1.02563e-06
1.02563e-06
1.02743e-06
1.02817e-06
1.02717e-06
1.02562e-06
1.02563e-06
1.02563e-06
1.02564e-06
1.02564e-06
1.02564e-06
1.02563e-06
1.02563e-06
1.02562e-06
1.02743e-06
1.02817e-06
1.02796e-06
1.027e-06
1.02563e-06
1.02563e-06
1.02563e-06
1.02563e-06
1.02563e-06
1.02563e-06
1.02563e-06
1.02722e-06
1.02744e-06
1.02815e-06
1.028e-06
1.02731e-06
1.02698e-06
1.02563e-06
1.02563e-06
1.02563e-06
1.02563e-06
1.02563e-06
1.02718e-06
1.02736e-06
1.02749e-06
1.02798e-06
1.02731e-06
1.027e-06
1.02562e-06
1.02563e-06
1.02562e-06
1.02722e-06
1.02736e-06
1.02746e-06
1.02813e-06
1.02799e-06
1.02739e-06
1.02744e-06
1.02743e-06
1.02743e-06
1.02744e-06
1.02749e-06
1.02813e-06
1.02801e-06
1.02815e-06
1.02817e-06
1.02817e-06
1.02815e-06
1.01878e-06
1.018e-06
1.01793e-06
1.01798e-06
1.01878e-06
1.01881e-06
1.0188e-06
1.01811e-06
1.01766e-06
1.01644e-06
1.01644e-06
1.01644e-06
1.01781e-06
1.01812e-06
1.0188e-06
1.01811e-06
1.01763e-06
1.01644e-06
1.01644e-06
1.01644e-06
1.01644e-06
1.01644e-06
1.01779e-06
1.01812e-06
1.0188e-06
1.01878e-06
1.01766e-06
1.01644e-06
1.01644e-06
1.01644e-06
1.01644e-06
1.01644e-06
1.01644e-06
1.01644e-06
1.01782e-06
1.01821e-06
1.01882e-06
1.018e-06
1.01644e-06
1.01644e-06
1.01644e-06
1.01644e-06
1.01644e-06
1.01644e-06
1.01644e-06
1.01644e-06
1.01644e-06
1.01825e-06
1.01897e-06
1.01793e-06
1.01644e-06
1.01644e-06
1.01644e-06
1.01644e-06
1.01644e-06
1.01644e-06
1.01644e-06
1.01644e-06
1.01644e-06
1.01824e-06
1.01898e-06
1.01798e-06
1.01644e-06
1.01644e-06
1.01644e-06
1.01644e-06
1.01644e-06
1.01644e-06
1.01644e-06
1.01644e-06
1.01644e-06
1.01825e-06
1.01898e-06
1.01878e-06
1.01781e-06
1.01644e-06
1.01644e-06
1.01644e-06
1.01644e-06
1.01644e-06
1.01644e-06
1.01644e-06
1.01803e-06
1.01825e-06
1.01896e-06
1.01881e-06
1.01812e-06
1.01779e-06
1.01644e-06
1.01644e-06
1.01644e-06
1.01644e-06
1.01644e-06
1.018e-06
1.01817e-06
1.0183e-06
1.0188e-06
1.01812e-06
1.01782e-06
1.01644e-06
1.01644e-06
1.01644e-06
1.01803e-06
1.01817e-06
1.01828e-06
1.01894e-06
1.0188e-06
1.01821e-06
1.01825e-06
1.01824e-06
1.01825e-06
1.01825e-06
1.0183e-06
1.01894e-06
1.01882e-06
1.01897e-06
1.01898e-06
1.01898e-06
1.01896e-06
1.00959e-06
1.00881e-06
1.00875e-06
1.00879e-06
1.00959e-06
1.00962e-06
1.00961e-06
1.00892e-06
1.00848e-06
1.00725e-06
1.00725e-06
1.00725e-06
1.00863e-06
1.00893e-06
1.00961e-06
1.00892e-06
1.00844e-06
1.00725e-06
1.00725e-06
1.00725e-06
1.00725e-06
1.00725e-06
1.0086e-06
1.00893e-06
1.00961e-06
1.00959e-06
1.00848e-06
1.00725e-06
1.00725e-06
1.00725e-06
1.00725e-06
1.00725e-06
1.00725e-06
1.00725e-06
1.00863e-06
1.00902e-06
1.00964e-06
1.00881e-06
1.00725e-06
1.00725e-06
1.00725e-06
1.00725e-06
1.00725e-06
1.00725e-06
1.00725e-06
1.00725e-06
1.00725e-06
1.00906e-06
1.00978e-06
1.00875e-06
1.00725e-06
1.00725e-06
1.00725e-06
1.00725e-06
1.00725e-06
1.00725e-06
1.00725e-06
1.00725e-06
1.00725e-06
1.00905e-06
1.00979e-06
1.00879e-06
1.00725e-06
1.00725e-06
1.00725e-06
1.00725e-06
1.00725e-06
1.00725e-06
1.00725e-06
1.00725e-06
1.00725e-06
1.00906e-06
1.00979e-06
1.00959e-06
1.00863e-06
1.00725e-06
1.00725e-06
1.00725e-06
1.00725e-06
1.00725e-06
1.00725e-06
1.00725e-06
1.00884e-06
1.00906e-06
1.00977e-06
1.00962e-06
1.00893e-06
1.0086e-06
1.00725e-06
1.00725e-06
1.00725e-06
1.00725e-06
1.00725e-06
1.00881e-06
1.00898e-06
1.00911e-06
1.00961e-06
1.00893e-06
1.00863e-06
1.00725e-06
1.00725e-06
1.00725e-06
1.00884e-06
1.00898e-06
1.00909e-06
1.00975e-06
1.00961e-06
1.00902e-06
1.00906e-06
1.00905e-06
1.00906e-06
1.00906e-06
1.00911e-06
1.00975e-06
1.00964e-06
1.00978e-06
1.00979e-06
1.00979e-06
1.00977e-06
1.0004e-06
9.99622e-07
9.99558e-07
9.99606e-07
1.0004e-06
1.00043e-06
1.00042e-06
9.99733e-07
9.99288e-07
9.98058e-07
9.98059e-07
9.98058e-07
9.99438e-07
9.99747e-07
1.00042e-06
9.99733e-07
9.99252e-07
9.98059e-07
9.9806e-07
9.9806e-07
9.9806e-07
9.98059e-07
9.99415e-07
9.99744e-07
1.00042e-06
1.0004e-06
9.99288e-07
9.98059e-07
9.9806e-07
9.9806e-07
9.9806e-07
9.9806e-07
9.9806e-07
9.98059e-07
9.9944e-07
9.99829e-07
1.00045e-06
9.99622e-07
9.98058e-07
9.9806e-07
9.9806e-07
9.98061e-07
9.98061e-07
9.98061e-07
9.9806e-07
9.9806e-07
9.98058e-07
9.99877e-07
1.00059e-06
9.99558e-07
9.98059e-07
9.9806e-07
9.9806e-07
9.98061e-07
9.98061e-07
9.98061e-07
9.9806e-07
9.9806e-07
9.98059e-07
9.99865e-07
1.0006e-06
9.99606e-07
9.98058e-07
9.9806e-07
9.9806e-07
9.98061e-07
9.98061e-07
9.98061e-07
9.9806e-07
9.9806e-07
9.98058e-07
9.99869e-07
1.0006e-06
1.0004e-06
9.99438e-07
9.98059e-07
9.9806e-07
9.9806e-07
9.9806e-07
9.9806e-07
9.9806e-07
9.98059e-07
9.99652e-07
9.99874e-07
1.00058e-06
1.00043e-06
9.99747e-07
9.99415e-07
9.98059e-07
9.9806e-07
9.9806e-07
9.9806e-07
9.98059e-07
9.99618e-07
9.99793e-07
9.99923e-07
1.00042e-06
9.99744e-07
9.9944e-07
9.98058e-07
9.98059e-07
9.98058e-07
9.99652e-07
9.99793e-07
9.99899e-07
1.00057e-06
1.00042e-06
9.99829e-07
9.99877e-07
9.99865e-07
9.99869e-07
9.99874e-07
9.99923e-07
1.00057e-06
1.00045e-06
1.00059e-06
1.0006e-06
1.0006e-06
1.00058e-06
9.91211e-07
9.90434e-07
9.9037e-07
9.90418e-07
9.91212e-07
9.91243e-07
9.91232e-07
9.90544e-07
9.901e-07
9.8887e-07
9.8887e-07
9.8887e-07
9.9025e-07
9.90558e-07
9.91231e-07
9.90544e-07
9.90064e-07
9.8887e-07
9.88872e-07
9.88871e-07
9.88872e-07
9.8887e-07
9.90227e-07
9.90556e-07
9.91234e-07
9.91211e-07
9.901e-07
9.8887e-07
9.88871e-07
9.88871e-07
9.88871e-07
9.88871e-07
9.88871e-07
9.8887e-07
9.90252e-07
9.90641e-07
9.91261e-07
9.90434e-07
9.8887e-07
9.88872e-07
9.88871e-07
9.88872e-07
9.88871e-07
9.88872e-07
9.88871e-07
9.88872e-07
9.8887e-07
9.90688e-07
9.91402e-07
9.9037e-07
9.8887e-07
9.88871e-07
9.88871e-07
9.88871e-07
9.88872e-07
9.88871e-07
9.88871e-07
9.88871e-07
9.8887e-07
9.90677e-07
9.91416e-07
9.90418e-07
9.8887e-07
9.88872e-07
9.88871e-07
9.88872e-07
9.88871e-07
9.88872e-07
9.88871e-07
9.88872e-07
9.8887e-07
9.90681e-07
9.91416e-07
9.91212e-07
9.9025e-07
9.8887e-07
9.88871e-07
9.88871e-07
9.88871e-07
9.88871e-07
9.88871e-07
9.8887e-07
9.90464e-07
9.90686e-07
9.91396e-07
9.91243e-07
9.90558e-07
9.90227e-07
9.8887e-07
9.88872e-07
9.88871e-07
9.88872e-07
9.8887e-07
9.90431e-07
9.90605e-07
9.90735e-07
9.91231e-07
9.90556e-07
9.90252e-07
9.8887e-07
9.8887e-07
9.8887e-07
9.90464e-07
9.90605e-07
9.90711e-07
9.91379e-07
9.91234e-07
9.90641e-07
9.90688e-07
9.90677e-07
9.90681e-07
9.90686e-07
9.90735e-07
9.91379e-07
9.9126e-07
9.91402e-07
9.91416e-07
9.91416e-07
9.91396e-07
9.82023e-07
9.81246e-07
9.81181e-07
9.8123e-07
9.82024e-07
9.82055e-07
9.82044e-07
9.81356e-07
9.80911e-07
9.79682e-07
9.79682e-07
9.79682e-07
9.81061e-07
9.8137e-07
9.82043e-07
9.81356e-07
9.80876e-07
9.79682e-07
9.79683e-07
9.79683e-07
9.79683e-07
9.79682e-07
9.81038e-07
9.81368e-07
9.82046e-07
9.82023e-07
9.80911e-07
9.79682e-07
9.79683e-07
9.79682e-07
9.79683e-07
9.79682e-07
9.79683e-07
9.79682e-07
9.81063e-07
9.81453e-07
9.82072e-07
9.81246e-07
9.79682e-07
9.79683e-07
9.79682e-07
9.79683e-07
9.79683e-07
9.79683e-07
9.79682e-07
9.79683e-07
9.79682e-07
9.815e-07
9.82214e-07
9.81181e-07
9.79682e-07
9.79683e-07
9.79683e-07
9.79683e-07
9.79683e-07
9.79683e-07
9.79683e-07
9.79683e-07
9.79682e-07
9.81489e-07
9.82227e-07
9.8123e-07
9.79682e-07
9.79683e-07
9.79682e-07
9.79683e-07
9.79683e-07
9.79683e-07
9.79682e-07
9.79683e-07
9.79682e-07
9.81493e-07
9.82228e-07
9.82024e-07
9.81061e-07
9.79682e-07
9.79683e-07
9.79682e-07
9.79683e-07
9.79682e-07
9.79683e-07
9.79682e-07
9.81275e-07
9.81498e-07
9.82208e-07
9.82055e-07
9.8137e-07
9.81038e-07
9.79682e-07
9.79683e-07
9.79683e-07
9.79684e-07
9.79682e-07
9.81242e-07
9.81416e-07
9.81547e-07
9.82043e-07
9.81368e-07
9.81063e-07
9.79682e-07
9.79682e-07
9.79682e-07
9.81275e-07
9.81416e-07
9.81523e-07
9.82191e-07
9.82046e-07
9.81453e-07
9.815e-07
9.81489e-07
9.81493e-07
9.81498e-07
9.81547e-07
9.8219e-07
9.82072e-07
9.82214e-07
9.82227e-07
9.82228e-07
9.82208e-07
9.72835e-07
9.72058e-07
9.71993e-07
9.72042e-07
9.72836e-07
9.72867e-07
9.72856e-07
9.72168e-07
9.71723e-07
9.70493e-07
9.70494e-07
9.70493e-07
9.71873e-07
9.72182e-07
9.72854e-07
9.72168e-07
9.71687e-07
9.70494e-07
9.70495e-07
9.70494e-07
9.70495e-07
9.70494e-07
9.7185e-07
9.7218e-07
9.72858e-07
9.72835e-07
9.71723e-07
9.70494e-07
9.70495e-07
9.70494e-07
9.70494e-07
9.70494e-07
9.70495e-07
9.70494e-07
9.71875e-07
9.72265e-07
9.72884e-07
9.72058e-07
9.70493e-07
9.70495e-07
9.70494e-07
9.70495e-07
9.70494e-07
9.70495e-07
9.70494e-07
9.70495e-07
9.70493e-07
9.72312e-07
9.73026e-07
9.71993e-07
9.70494e-07
9.70494e-07
9.70494e-07
9.70494e-07
9.70495e-07
9.70494e-07
9.70494e-07
9.70494e-07
9.70494e-07
9.723e-07
9.73039e-07
9.72042e-07
9.70493e-07
9.70495e-07
9.70494e-07
9.70495e-07
9.70494e-07
9.70495e-07
9.70494e-07
9.70495e-07
9.70493e-07
9.72305e-07
9.7304e-07
9.72836e-07
9.71873e-07
9.70494e-07
9.70495e-07
9.70494e-07
9.70494e-07
9.70494e-07
9.70495e-07
9.70494e-07
9.72087e-07
9.72309e-07
9.7302e-07
9.72867e-07
9.72182e-07
9.7185e-07
9.70494e-07
9.70495e-07
9.70494e-07
9.70495e-07
9.70494e-07
9.72054e-07
9.72228e-07
9.72359e-07
9.72854e-07
9.7218e-07
9.71875e-07
9.70493e-07
9.70494e-07
9.70493e-07
9.72087e-07
9.72228e-07
9.72334e-07
9.73002e-07
9.72858e-07
9.72265e-07
9.72312e-07
9.723e-07
9.72305e-07
9.72309e-07
9.72359e-07
9.73002e-07
9.72884e-07
9.73026e-07
9.73039e-07
9.7304e-07
9.7302e-07
9.63647e-07
9.62869e-07
9.62805e-07
9.62853e-07
9.63648e-07
9.63679e-07
9.63667e-07
9.6298e-07
9.62535e-07
9.61305e-07
9.61306e-07
9.61305e-07
9.62685e-07
9.62994e-07
9.63666e-07
9.6298e-07
9.62499e-07
9.61305e-07
9.61307e-07
9.61306e-07
9.61307e-07
9.61305e-07
9.62662e-07
9.62991e-07
9.6367e-07
9.63647e-07
9.62535e-07
9.61305e-07
9.61306e-07
9.61306e-07
9.61306e-07
9.61306e-07
9.61306e-07
9.61305e-07
9.62687e-07
9.63076e-07
9.63696e-07
9.62869e-07
9.61305e-07
9.61307e-07
9.61306e-07
9.61307e-07
9.61306e-07
9.61307e-07
9.61306e-07
9.61307e-07
9.61305e-07
9.63124e-07
9.63837e-07
9.62805e-07
9.61306e-07
9.61306e-07
9.61306e-07
9.61306e-07
9.61306e-07
9.61306e-07
9.61306e-07
9.61306e-07
9.61306e-07
9.63112e-07
9.63851e-07
9.62853e-07
9.61305e-07
9.61307e-07
9.61306e-07
9.61307e-07
9.61306e-07
9.61307e-07
9.61306e-07
9.61307e-07
9.61305e-07
9.63116e-07
9.63851e-07
9.63648e-07
9.62685e-07
9.61305e-07
9.61306e-07
9.61306e-07
9.61306e-07
9.61306e-07
9.61306e-07
9.61305e-07
9.62899e-07
9.63121e-07
9.63831e-07
9.63679e-07
9.62994e-07
9.62662e-07
9.61305e-07
9.61307e-07
9.61306e-07
9.61307e-07
9.61305e-07
9.62866e-07
9.6304e-07
9.63171e-07
9.63666e-07
9.62991e-07
9.62687e-07
9.61305e-07
9.61306e-07
9.61305e-07
9.62899e-07
9.6304e-07
9.63146e-07
9.63814e-07
9.6367e-07
9.63077e-07
9.63124e-07
9.63112e-07
9.63116e-07
9.63121e-07
9.63171e-07
9.63814e-07
9.63696e-07
9.63837e-07
9.63851e-07
9.63852e-07
9.63831e-07
9.54459e-07
9.53681e-07
9.53617e-07
9.53665e-07
9.5446e-07
9.5449e-07
9.54479e-07
9.53792e-07
9.53347e-07
9.52117e-07
9.52117e-07
9.52117e-07
9.53497e-07
9.53806e-07
9.54478e-07
9.53792e-07
9.53311e-07
9.52117e-07
9.52119e-07
9.52118e-07
9.52119e-07
9.52117e-07
9.53474e-07
9.53803e-07
9.54481e-07
9.54459e-07
9.53347e-07
9.52117e-07
9.52118e-07
9.52117e-07
9.52118e-07
9.52117e-07
9.52118e-07
9.52117e-07
9.53499e-07
9.53888e-07
9.54508e-07
9.53681e-07
9.52117e-07
9.52119e-07
9.52117e-07
9.52118e-07
9.52118e-07
9.52118e-07
9.52117e-07
9.52119e-07
9.52117e-07
9.53935e-07
9.54649e-07
9.53617e-07
9.52118e-07
9.52118e-07
9.52118e-07
9.52117e-07
9.52118e-07
9.52117e-07
9.52118e-07
9.52118e-07
9.52117e-07
9.53924e-07
9.54663e-07
9.53665e-07
9.52117e-07
9.52119e-07
9.52117e-07
9.52118e-07
9.52117e-07
9.52118e-07
9.52117e-07
9.52119e-07
9.52117e-07
9.53928e-07
9.54663e-07
9.5446e-07
9.53497e-07
9.52117e-07
9.52118e-07
9.52117e-07
9.52118e-07
9.52117e-07
9.52118e-07
9.52117e-07
9.53711e-07
9.53933e-07
9.54643e-07
9.5449e-07
9.53806e-07
9.53474e-07
9.52117e-07
9.52119e-07
9.52118e-07
9.52119e-07
9.52117e-07
9.53677e-07
9.53852e-07
9.53982e-07
9.54478e-07
9.53803e-07
9.53499e-07
9.52117e-07
9.52117e-07
9.52117e-07
9.53711e-07
9.53852e-07
9.53958e-07
9.54626e-07
9.54481e-07
9.53888e-07
9.53936e-07
9.53924e-07
9.53928e-07
9.53933e-07
9.53982e-07
9.54626e-07
9.54508e-07
9.54649e-07
9.54663e-07
9.54663e-07
9.54643e-07
9.4527e-07
9.44493e-07
9.44428e-07
9.44477e-07
9.45271e-07
9.45302e-07
9.45291e-07
9.44603e-07
9.44159e-07
9.42929e-07
9.42929e-07
9.42929e-07
9.44309e-07
9.44617e-07
9.4529e-07
9.44603e-07
9.44123e-07
9.42929e-07
9.4293e-07
9.42929e-07
9.4293e-07
9.42929e-07
9.44286e-07
9.44615e-07
9.45293e-07
9.4527e-07
9.44159e-07
9.42929e-07
9.4293e-07
9.42929e-07
9.42929e-07
9.42929e-07
9.4293e-07
9.42929e-07
9.4431e-07
9.447e-07
9.45319e-07
9.44493e-07
9.42929e-07
9.4293e-07
9.42929e-07
9.4293e-07
9.42929e-07
9.4293e-07
9.42929e-07
9.4293e-07
9.42929e-07
9.44747e-07
9.45461e-07
9.44428e-07
9.42929e-07
9.42929e-07
9.42929e-07
9.42929e-07
9.42929e-07
9.42929e-07
9.42929e-07
9.42929e-07
9.42929e-07
9.44736e-07
9.45474e-07
9.44477e-07
9.42929e-07
9.4293e-07
9.42929e-07
9.4293e-07
9.42929e-07
9.4293e-07
9.42929e-07
9.4293e-07
9.42929e-07
9.4474e-07
9.45475e-07
9.45271e-07
9.44309e-07
9.42929e-07
9.4293e-07
9.42929e-07
9.42929e-07
9.42929e-07
9.4293e-07
9.42929e-07
9.44522e-07
9.44745e-07
9.45455e-07
9.45302e-07
9.44617e-07
9.44286e-07
9.42929e-07
9.4293e-07
9.42929e-07
9.4293e-07
9.42929e-07
9.44489e-07
9.44664e-07
9.44794e-07
9.4529e-07
9.44615e-07
9.4431e-07
9.42929e-07
9.42929e-07
9.42929e-07
9.44522e-07
9.44664e-07
9.4477e-07
9.45438e-07
9.45293e-07
9.447e-07
9.44747e-07
9.44736e-07
9.4474e-07
9.44745e-07
9.44794e-07
9.45437e-07
9.45319e-07
9.45461e-07
9.45474e-07
9.45475e-07
9.45455e-07
9.36082e-07
9.35305e-07
9.3524e-07
9.35289e-07
9.36083e-07
9.36114e-07
9.36103e-07
9.35415e-07
9.3497e-07
9.3374e-07
9.33741e-07
9.3374e-07
9.3512e-07
9.35429e-07
9.36102e-07
9.35415e-07
9.34934e-07
9.33741e-07
9.33742e-07
9.33741e-07
9.33742e-07
9.33741e-07
9.35097e-07
9.35427e-07
9.36105e-07
9.36082e-07
9.3497e-07
9.33741e-07
9.33741e-07
9.33741e-07
9.33741e-07
9.33741e-07
9.33741e-07
9.33741e-07
9.35122e-07
9.35512e-07
9.36131e-07
9.35305e-07
9.3374e-07
9.33742e-07
9.33741e-07
9.33742e-07
9.33741e-07
9.33742e-07
9.33741e-07
9.33742e-07
9.3374e-07
9.35559e-07
9.36273e-07
9.3524e-07
9.33741e-07
9.33741e-07
9.33741e-07
9.33741e-07
9.33741e-07
9.33741e-07
9.33741e-07
9.33741e-07
9.33741e-07
9.35548e-07
9.36286e-07
9.35289e-07
9.3374e-07
9.33742e-07
9.33741e-07
9.33742e-07
9.33741e-07
9.33742e-07
9.33741e-07
9.33742e-07
9.3374e-07
9.35552e-07
9.36287e-07
9.36083e-07
9.3512e-07
9.33741e-07
9.33741e-07
9.33741e-07
9.33741e-07
9.33741e-07
9.33741e-07
9.33741e-07
9.35334e-07
9.35557e-07
9.36267e-07
9.36114e-07
9.35429e-07
9.35097e-07
9.33741e-07
9.33742e-07
9.33741e-07
9.33742e-07
9.33741e-07
9.35301e-07
9.35475e-07
9.35606e-07
9.36102e-07
9.35427e-07
9.35122e-07
9.3374e-07
9.33741e-07
9.3374e-07
9.35334e-07
9.35475e-07
9.35582e-07
9.36249e-07
9.36105e-07
9.35512e-07
9.35559e-07
9.35548e-07
9.35552e-07
9.35557e-07
9.35606e-07
9.36249e-07
9.36131e-07
9.36273e-07
9.36286e-07
9.36287e-07
9.36267e-07
9.26894e-07
9.26117e-07
9.26052e-07
9.261e-07
9.26895e-07
9.26926e-07
9.26915e-07
9.26227e-07
9.25782e-07
9.24552e-07
9.24553e-07
9.24552e-07
9.25932e-07
9.26241e-07
9.26913e-07
9.26227e-07
9.25746e-07
9.24553e-07
9.24554e-07
9.24553e-07
9.24554e-07
9.24553e-07
9.25909e-07
9.26239e-07
9.26917e-07
9.26894e-07
9.25782e-07
9.24553e-07
9.24553e-07
9.24553e-07
9.24553e-07
9.24553e-07
9.24553e-07
9.24553e-07
9.25934e-07
9.26324e-07
9.26943e-07
9.26116e-07
9.24552e-07
9.24554e-07
9.24553e-07
9.24554e-07
9.24553e-07
9.24554e-07
9.24553e-07
9.24554e-07
9.24552e-07
9.26371e-07
9.27085e-07
9.26052e-07
9.24553e-07
9.24553e-07
9.24553e-07
9.24553e-07
9.24553e-07
9.24553e-07
9.24553e-07
9.24553e-07
9.24553e-07
9.26359e-07
9.27098e-07
9.261e-07
9.24552e-07
9.24554e-07
9.24553e-07
9.24554e-07
9.24553e-07
9.24554e-07
9.24553e-07
9.24554e-07
9.24552e-07
9.26364e-07
9.27099e-07
9.26895e-07
9.25932e-07
9.24553e-07
9.24553e-07
9.24553e-07
9.24553e-07
9.24553e-07
9.24553e-07
9.24553e-07
9.26146e-07
9.26368e-07
9.27078e-07
9.26926e-07
9.26241e-07
9.25909e-07
9.24553e-07
9.24554e-07
9.24553e-07
9.24554e-07
9.24553e-07
9.26113e-07
9.26287e-07
9.26418e-07
9.26913e-07
9.26238e-07
9.25934e-07
9.24552e-07
9.24553e-07
9.24552e-07
9.26146e-07
9.26287e-07
9.26393e-07
9.27061e-07
9.26917e-07
9.26324e-07
9.26371e-07
9.26359e-07
9.26364e-07
9.26368e-07
9.26418e-07
9.27061e-07
9.26943e-07
9.27085e-07
9.27098e-07
9.27099e-07
9.27078e-07
9.17706e-07
9.16928e-07
9.16864e-07
9.16912e-07
9.17707e-07
9.17738e-07
9.17726e-07
9.17039e-07
9.16594e-07
9.15364e-07
9.15365e-07
9.15364e-07
9.16744e-07
9.17053e-07
9.17725e-07
9.17039e-07
9.16558e-07
9.15364e-07
9.15366e-07
9.15365e-07
9.15366e-07
9.15364e-07
9.16721e-07
9.1705e-07
9.17729e-07
9.17706e-07
9.16594e-07
9.15364e-07
9.15365e-07
9.15364e-07
9.15365e-07
9.15364e-07
9.15365e-07
9.15364e-07
9.16746e-07
9.17135e-07
9.17755e-07
9.16928e-07
9.15364e-07
9.15366e-07
9.15364e-07
9.15366e-07
9.15365e-07
9.15366e-07
9.15364e-07
9.15366e-07
9.15364e-07
9.17183e-07
9.17896e-07
9.16864e-07
9.15365e-07
9.15365e-07
9.15365e-07
9.15365e-07
9.15365e-07
9.15365e-07
9.15365e-07
9.15365e-07
9.15365e-07
9.17171e-07
9.1791e-07
9.16912e-07
9.15364e-07
9.15366e-07
9.15364e-07
9.15366e-07
9.15365e-07
9.15366e-07
9.15364e-07
9.15366e-07
9.15364e-07
9.17175e-07
9.1791e-07
9.17707e-07
9.16744e-07
9.15364e-07
9.15365e-07
9.15364e-07
9.15365e-07
9.15364e-07
9.15365e-07
9.15364e-07
9.16958e-07
9.1718e-07
9.1789e-07
9.17737e-07
9.17053e-07
9.16721e-07
9.15364e-07
9.15366e-07
9.15365e-07
9.15366e-07
9.15364e-07
9.16925e-07
9.17099e-07
9.1723e-07
9.17725e-07
9.1705e-07
9.16746e-07
9.15364e-07
9.15365e-07
9.15364e-07
9.16958e-07
9.17099e-07
9.17205e-07
9.17873e-07
9.17728e-07
9.17135e-07
9.17183e-07
9.17171e-07
9.17175e-07
9.1718e-07
9.17229e-07
9.17873e-07
9.17755e-07
9.17896e-07
9.1791e-07
9.1791e-07
9.1789e-07
9.08517e-07
9.0774e-07
9.07676e-07
9.07724e-07
9.08518e-07
9.08549e-07
9.08538e-07
9.0785e-07
9.07406e-07
9.06176e-07
9.06176e-07
9.06176e-07
9.07556e-07
9.07864e-07
9.08537e-07
9.0785e-07
9.0737e-07
9.06176e-07
9.06177e-07
9.06176e-07
9.06177e-07
9.06176e-07
9.07533e-07
9.07862e-07
9.0854e-07
9.08517e-07
9.07406e-07
9.06176e-07
9.06177e-07
9.06176e-07
9.06177e-07
9.06176e-07
9.06177e-07
9.06176e-07
9.07558e-07
9.07947e-07
9.08566e-07
9.0774e-07
9.06176e-07
9.06177e-07
9.06176e-07
9.06177e-07
9.06176e-07
9.06177e-07
9.06176e-07
9.06177e-07
9.06176e-07
9.07994e-07
9.08708e-07
9.07676e-07
9.06176e-07
9.06176e-07
9.06177e-07
9.06176e-07
9.06177e-07
9.06176e-07
9.06177e-07
9.06177e-07
9.06176e-07
9.07983e-07
9.08722e-07
9.07724e-07
9.06176e-07
9.06177e-07
9.06176e-07
9.06177e-07
9.06176e-07
9.06177e-07
9.06176e-07
9.06177e-07
9.06176e-07