/*--------------------------------*- C++ -*----------------------------------*\
| =========                 |                                                 |
| \\      /  F ield         | OpenFOAM: The Open Source CFD Toolbox           |
|  \\    /   O peration     | Version:  v2012                                 |
|   \\  /    A nd           | Website:  www.openfoam.com                      |
|    \\/     M anipulation  |                                                 |
\*---------------------------------------------------------------------------*/
FoamFile
{
    version     2.0;
    format      ascii;
    class       volScalarField;
    location    "25";
    object      p;
}
// * * * * * * * * * * * * * * * * * * * * * * * * * * * * * * * * * * * * * //

dimensions      [0 2 -2 0 0 0 0];


internalField   nonuniform List<scalar> 
292667
(
1.50952e-06
1.49828e-06
1.4973e-06
1.4974e-06
1.49879e-06
1.51051e-06
1.4985e-06
1.49501e-06
1.49301e-06
1.4922e-06
1.4923e-06
1.49338e-06
1.49571e-06
1.49956e-06
1.4985e-06
1.49399e-06
1.49125e-06
1.48976e-06
1.48913e-06
1.48921e-06
1.49003e-06
1.49178e-06
1.4949e-06
1.49987e-06
1.50951e-06
1.49501e-06
1.49125e-06
1.48906e-06
1.48783e-06
1.4873e-06
1.48738e-06
1.48806e-06
1.48949e-06
1.492e-06
1.49626e-06
1.50972e-06
1.49828e-06
1.49301e-06
1.48976e-06
1.48783e-06
1.48674e-06
1.48626e-06
1.48633e-06
1.48694e-06
1.48822e-06
1.49041e-06
1.49412e-06
1.50297e-06
1.4973e-06
1.49219e-06
1.48913e-06
1.4873e-06
1.48626e-06
1.48581e-06
1.48587e-06
1.48646e-06
1.48767e-06
1.48975e-06
1.49326e-06
1.50081e-06
1.4974e-06
1.4923e-06
1.48921e-06
1.48737e-06
1.48633e-06
1.48587e-06
1.48593e-06
1.48653e-06
1.48775e-06
1.48984e-06
1.49338e-06
1.50116e-06
1.49879e-06
1.49337e-06
1.49003e-06
1.48806e-06
1.48694e-06
1.48646e-06
1.48653e-06
1.48716e-06
1.48846e-06
1.49071e-06
1.49454e-06
1.50337e-06
1.51051e-06
1.49571e-06
1.49178e-06
1.48949e-06
1.48822e-06
1.48767e-06
1.48775e-06
1.48846e-06
1.48995e-06
1.49258e-06
1.49701e-06
1.50986e-06
1.49956e-06
1.4949e-06
1.492e-06
1.49041e-06
1.48975e-06
1.48984e-06
1.49071e-06
1.49258e-06
1.4959e-06
1.50384e-06
1.49987e-06
1.49626e-06
1.49412e-06
1.49326e-06
1.49338e-06
1.49453e-06
1.497e-06
1.50384e-06
1.50972e-06
1.50297e-06
1.50081e-06
1.50116e-06
1.50337e-06
1.50986e-06
1.47676e-06
1.47542e-06
1.4754e-06
1.47543e-06
1.47655e-06
1.47657e-06
1.47683e-06
1.47577e-06
1.4753e-06
1.47335e-06
1.47332e-06
1.47335e-06
1.47539e-06
1.4757e-06
1.47674e-06
1.47577e-06
1.47532e-06
1.4734e-06
1.4733e-06
1.47335e-06
1.4733e-06
1.4734e-06
1.47536e-06
1.47568e-06
1.47671e-06
1.47676e-06
1.4753e-06
1.4734e-06
1.47332e-06
1.47335e-06
1.47335e-06
1.47335e-06
1.47332e-06
1.4734e-06
1.47535e-06
1.4757e-06
1.47686e-06
1.47542e-06
1.47335e-06
1.4733e-06
1.47335e-06
1.47332e-06
1.47332e-06
1.47332e-06
1.47335e-06
1.4733e-06
1.47335e-06
1.47575e-06
1.47686e-06
1.4754e-06
1.47332e-06
1.47335e-06
1.47335e-06
1.47332e-06
1.47331e-06
1.47332e-06
1.47335e-06
1.47335e-06
1.47332e-06
1.47571e-06
1.47662e-06
1.47543e-06
1.47335e-06
1.4733e-06
1.47335e-06
1.47332e-06
1.47332e-06
1.47332e-06
1.47335e-06
1.4733e-06
1.47335e-06
1.47574e-06
1.47669e-06
1.47655e-06
1.47539e-06
1.4734e-06
1.47332e-06
1.47335e-06
1.47335e-06
1.47335e-06
1.47332e-06
1.4734e-06
1.47541e-06
1.47571e-06
1.47687e-06
1.47657e-06
1.4757e-06
1.47536e-06
1.4734e-06
1.4733e-06
1.47335e-06
1.4733e-06
1.4734e-06
1.47538e-06
1.47564e-06
1.47577e-06
1.47674e-06
1.47568e-06
1.47535e-06
1.47335e-06
1.47332e-06
1.47335e-06
1.47541e-06
1.47564e-06
1.47585e-06
1.47689e-06
1.47671e-06
1.4757e-06
1.47575e-06
1.47571e-06
1.47574e-06
1.47571e-06
1.47577e-06
1.47689e-06
1.47686e-06
1.47686e-06
1.47663e-06
1.47669e-06
1.47687e-06
1.46414e-06
1.4629e-06
1.46282e-06
1.46287e-06
1.46404e-06
1.46415e-06
1.46421e-06
1.4631e-06
1.46257e-06
1.46063e-06
1.46062e-06
1.46063e-06
1.46268e-06
1.46306e-06
1.46409e-06
1.4631e-06
1.46257e-06
1.46069e-06
1.46067e-06
1.46071e-06
1.46067e-06
1.46069e-06
1.46267e-06
1.46304e-06
1.4641e-06
1.46414e-06
1.46256e-06
1.46069e-06
1.46069e-06
1.46076e-06
1.46077e-06
1.46076e-06
1.46069e-06
1.46069e-06
1.46266e-06
1.46311e-06
1.4642e-06
1.4629e-06
1.46063e-06
1.46067e-06
1.46076e-06
1.46078e-06
1.4608e-06
1.46078e-06
1.46076e-06
1.46067e-06
1.46063e-06
1.46309e-06
1.46426e-06
1.46282e-06
1.46062e-06
1.46071e-06
1.46077e-06
1.4608e-06
1.46081e-06
1.4608e-06
1.46077e-06
1.46071e-06
1.46062e-06
1.46307e-06
1.46423e-06
1.46287e-06
1.46063e-06
1.46067e-06
1.46076e-06
1.46078e-06
1.4608e-06
1.46078e-06
1.46076e-06
1.46067e-06
1.46063e-06
1.46308e-06
1.46423e-06
1.46404e-06
1.46268e-06
1.46069e-06
1.46069e-06
1.46076e-06
1.46077e-06
1.46076e-06
1.46069e-06
1.46069e-06
1.46278e-06
1.46311e-06
1.46429e-06
1.46415e-06
1.46306e-06
1.46267e-06
1.46069e-06
1.46067e-06
1.46071e-06
1.46067e-06
1.46069e-06
1.46275e-06
1.463e-06
1.4632e-06
1.46409e-06
1.46304e-06
1.46266e-06
1.46063e-06
1.46062e-06
1.46063e-06
1.46278e-06
1.463e-06
1.46318e-06
1.46428e-06
1.4641e-06
1.46311e-06
1.46309e-06
1.46307e-06
1.46308e-06
1.46311e-06
1.4632e-06
1.46428e-06
1.4642e-06
1.46426e-06
1.46423e-06
1.46423e-06
1.46429e-06
1.45164e-06
1.45038e-06
1.4503e-06
1.45035e-06
1.45154e-06
1.45165e-06
1.4517e-06
1.45056e-06
1.45e-06
1.44805e-06
1.44805e-06
1.44805e-06
1.45012e-06
1.45053e-06
1.45159e-06
1.45056e-06
1.44998e-06
1.44808e-06
1.44809e-06
1.44811e-06
1.44809e-06
1.44808e-06
1.45009e-06
1.45052e-06
1.45159e-06
1.45164e-06
1.45e-06
1.44808e-06
1.4481e-06
1.44815e-06
1.44816e-06
1.44815e-06
1.4481e-06
1.44808e-06
1.45011e-06
1.4506e-06
1.4517e-06
1.45038e-06
1.44805e-06
1.44809e-06
1.44815e-06
1.44817e-06
1.44819e-06
1.44817e-06
1.44815e-06
1.44809e-06
1.44805e-06
1.45056e-06
1.45176e-06
1.4503e-06
1.44805e-06
1.44811e-06
1.44816e-06
1.44819e-06
1.4482e-06
1.44819e-06
1.44816e-06
1.44811e-06
1.44805e-06
1.45053e-06
1.45172e-06
1.45035e-06
1.44805e-06
1.44809e-06
1.44815e-06
1.44817e-06
1.44819e-06
1.44817e-06
1.44815e-06
1.44809e-06
1.44805e-06
1.45055e-06
1.45173e-06
1.45154e-06
1.45012e-06
1.44808e-06
1.4481e-06
1.44815e-06
1.44816e-06
1.44815e-06
1.4481e-06
1.44808e-06
1.45024e-06
1.4506e-06
1.45179e-06
1.45165e-06
1.45053e-06
1.45009e-06
1.44808e-06
1.44809e-06
1.44811e-06
1.44809e-06
1.44808e-06
1.45021e-06
1.45049e-06
1.45069e-06
1.45159e-06
1.45052e-06
1.45011e-06
1.44805e-06
1.44805e-06
1.44805e-06
1.45024e-06
1.45049e-06
1.45067e-06
1.45178e-06
1.45159e-06
1.4506e-06
1.45056e-06
1.45053e-06
1.45055e-06
1.4506e-06
1.45069e-06
1.45178e-06
1.4517e-06
1.45176e-06
1.45172e-06
1.45173e-06
1.45179e-06
1.43913e-06
1.43786e-06
1.43778e-06
1.43783e-06
1.43903e-06
1.43914e-06
1.43919e-06
1.43804e-06
1.43747e-06
1.43551e-06
1.43551e-06
1.43551e-06
1.43758e-06
1.43801e-06
1.43908e-06
1.43804e-06
1.43744e-06
1.43552e-06
1.43553e-06
1.43555e-06
1.43553e-06
1.43552e-06
1.43756e-06
1.438e-06
1.43908e-06
1.43913e-06
1.43747e-06
1.43552e-06
1.43554e-06
1.43557e-06
1.43557e-06
1.43557e-06
1.43554e-06
1.43552e-06
1.43757e-06
1.43808e-06
1.43919e-06
1.43786e-06
1.43551e-06
1.43553e-06
1.43557e-06
1.43559e-06
1.4356e-06
1.43559e-06
1.43557e-06
1.43553e-06
1.43551e-06
1.43805e-06
1.43925e-06
1.43778e-06
1.43551e-06
1.43555e-06
1.43557e-06
1.4356e-06
1.43561e-06
1.4356e-06
1.43557e-06
1.43555e-06
1.43551e-06
1.43801e-06
1.43921e-06
1.43783e-06
1.43551e-06
1.43553e-06
1.43557e-06
1.43559e-06
1.4356e-06
1.43559e-06
1.43557e-06
1.43553e-06
1.43551e-06
1.43803e-06
1.43922e-06
1.43903e-06
1.43758e-06
1.43552e-06
1.43554e-06
1.43557e-06
1.43557e-06
1.43557e-06
1.43554e-06
1.43552e-06
1.43771e-06
1.43809e-06
1.43928e-06
1.43914e-06
1.43801e-06
1.43756e-06
1.43552e-06
1.43553e-06
1.43555e-06
1.43553e-06
1.43552e-06
1.43768e-06
1.43797e-06
1.43818e-06
1.43908e-06
1.438e-06
1.43757e-06
1.43551e-06
1.43551e-06
1.43551e-06
1.43771e-06
1.43797e-06
1.43816e-06
1.43928e-06
1.43908e-06
1.43808e-06
1.43805e-06
1.43801e-06
1.43803e-06
1.43809e-06
1.43818e-06
1.43928e-06
1.43919e-06
1.43925e-06
1.43921e-06
1.43922e-06
1.43928e-06
1.42661e-06
1.42535e-06
1.42526e-06
1.42531e-06
1.42651e-06
1.42663e-06
1.42668e-06
1.42553e-06
1.42495e-06
1.42298e-06
1.42298e-06
1.42298e-06
1.42506e-06
1.42549e-06
1.42656e-06
1.42552e-06
1.42492e-06
1.42299e-06
1.42299e-06
1.423e-06
1.42299e-06
1.42299e-06
1.42503e-06
1.42548e-06
1.42657e-06
1.42661e-06
1.42495e-06
1.42299e-06
1.423e-06
1.42302e-06
1.42302e-06
1.42302e-06
1.423e-06
1.42299e-06
1.42505e-06
1.42557e-06
1.42668e-06
1.42535e-06
1.42298e-06
1.42299e-06
1.42302e-06
1.42303e-06
1.42303e-06
1.42303e-06
1.42302e-06
1.42299e-06
1.42298e-06
1.42553e-06
1.42674e-06
1.42526e-06
1.42298e-06
1.423e-06
1.42302e-06
1.42303e-06
1.42304e-06
1.42303e-06
1.42302e-06
1.423e-06
1.42298e-06
1.42549e-06
1.4267e-06
1.42531e-06
1.42298e-06
1.42299e-06
1.42302e-06
1.42303e-06
1.42303e-06
1.42303e-06
1.42302e-06
1.42299e-06
1.42298e-06
1.42551e-06
1.42671e-06
1.42651e-06
1.42506e-06
1.42299e-06
1.423e-06
1.42302e-06
1.42302e-06
1.42302e-06
1.423e-06
1.42299e-06
1.42519e-06
1.42557e-06
1.42676e-06
1.42663e-06
1.42549e-06
1.42503e-06
1.42299e-06
1.42299e-06
1.423e-06
1.42299e-06
1.42299e-06
1.42516e-06
1.42545e-06
1.42567e-06
1.42656e-06
1.42548e-06
1.42505e-06
1.42298e-06
1.42298e-06
1.42298e-06
1.42519e-06
1.42545e-06
1.42564e-06
1.42676e-06
1.42657e-06
1.42557e-06
1.42553e-06
1.42549e-06
1.42551e-06
1.42557e-06
1.42567e-06
1.42676e-06
1.42668e-06
1.42674e-06
1.4267e-06
1.42671e-06
1.42676e-06
1.4141e-06
1.41283e-06
1.41275e-06
1.4128e-06
1.414e-06
1.41412e-06
1.41416e-06
1.41301e-06
1.41243e-06
1.41046e-06
1.41046e-06
1.41046e-06
1.41254e-06
1.41297e-06
1.41405e-06
1.41301e-06
1.4124e-06
1.41046e-06
1.41047e-06
1.41047e-06
1.41047e-06
1.41046e-06
1.41251e-06
1.41297e-06
1.41406e-06
1.4141e-06
1.41243e-06
1.41046e-06
1.41047e-06
1.41048e-06
1.41048e-06
1.41048e-06
1.41047e-06
1.41046e-06
1.41253e-06
1.41305e-06
1.41416e-06
1.41283e-06
1.41046e-06
1.41047e-06
1.41048e-06
1.41049e-06
1.41049e-06
1.41049e-06
1.41048e-06
1.41047e-06
1.41046e-06
1.41301e-06
1.41422e-06
1.41275e-06
1.41046e-06
1.41047e-06
1.41048e-06
1.41049e-06
1.41049e-06
1.41049e-06
1.41048e-06
1.41047e-06
1.41046e-06
1.41297e-06
1.41419e-06
1.4128e-06
1.41046e-06
1.41047e-06
1.41048e-06
1.41049e-06
1.41049e-06
1.41049e-06
1.41048e-06
1.41047e-06
1.41046e-06
1.41299e-06
1.41419e-06
1.414e-06
1.41254e-06
1.41046e-06
1.41047e-06
1.41048e-06
1.41048e-06
1.41048e-06
1.41047e-06
1.41046e-06
1.41268e-06
1.41306e-06
1.41425e-06
1.41412e-06
1.41297e-06
1.41251e-06
1.41046e-06
1.41047e-06
1.41047e-06
1.41047e-06
1.41046e-06
1.41264e-06
1.41294e-06
1.41316e-06
1.41405e-06
1.41297e-06
1.41253e-06
1.41046e-06
1.41046e-06
1.41046e-06
1.41268e-06
1.41294e-06
1.41313e-06
1.41425e-06
1.41406e-06
1.41305e-06
1.41301e-06
1.41297e-06
1.41299e-06
1.41306e-06
1.41316e-06
1.41425e-06
1.41416e-06
1.41422e-06
1.41419e-06
1.41419e-06
1.41425e-06
1.40158e-06
1.40031e-06
1.40023e-06
1.40028e-06
1.40148e-06
1.4016e-06
1.40165e-06
1.40049e-06
1.39991e-06
1.39794e-06
1.39794e-06
1.39794e-06
1.40003e-06
1.40046e-06
1.40153e-06
1.40049e-06
1.39988e-06
1.39794e-06
1.39794e-06
1.39795e-06
1.39794e-06
1.39794e-06
1.39999e-06
1.40045e-06
1.40154e-06
1.40158e-06
1.39991e-06
1.39794e-06
1.39795e-06
1.39795e-06
1.39795e-06
1.39795e-06
1.39795e-06
1.39794e-06
1.40002e-06
1.40054e-06
1.40165e-06
1.40031e-06
1.39794e-06
1.39794e-06
1.39795e-06
1.39795e-06
1.39796e-06
1.39795e-06
1.39795e-06
1.39794e-06
1.39794e-06
1.4005e-06
1.40171e-06
1.40023e-06
1.39794e-06
1.39795e-06
1.39795e-06
1.39796e-06
1.39796e-06
1.39796e-06
1.39795e-06
1.39795e-06
1.39794e-06
1.40046e-06
1.40167e-06
1.40028e-06
1.39794e-06
1.39794e-06
1.39795e-06
1.39795e-06
1.39796e-06
1.39795e-06
1.39795e-06
1.39794e-06
1.39794e-06
1.40048e-06
1.40167e-06
1.40148e-06
1.40003e-06
1.39794e-06
1.39795e-06
1.39795e-06
1.39795e-06
1.39795e-06
1.39795e-06
1.39794e-06
1.40016e-06
1.40054e-06
1.40173e-06
1.4016e-06
1.40046e-06
1.39999e-06
1.39794e-06
1.39794e-06
1.39795e-06
1.39794e-06
1.39794e-06
1.40012e-06
1.40042e-06
1.40064e-06
1.40153e-06
1.40045e-06
1.40002e-06
1.39794e-06
1.39794e-06
1.39794e-06
1.40016e-06
1.40042e-06
1.40061e-06
1.40173e-06
1.40154e-06
1.40054e-06
1.4005e-06
1.40046e-06
1.40048e-06
1.40054e-06
1.40064e-06
1.40173e-06
1.40165e-06
1.40171e-06
1.40167e-06
1.40167e-06
1.40173e-06
1.38907e-06
1.3878e-06
1.38771e-06
1.38776e-06
1.38896e-06
1.38908e-06
1.38913e-06
1.38798e-06
1.38739e-06
1.38542e-06
1.38542e-06
1.38542e-06
1.38751e-06
1.38794e-06
1.38902e-06
1.38798e-06
1.38736e-06
1.38542e-06
1.38543e-06
1.38543e-06
1.38543e-06
1.38542e-06
1.38748e-06
1.38793e-06
1.38902e-06
1.38907e-06
1.38739e-06
1.38542e-06
1.38543e-06
1.38543e-06
1.38543e-06
1.38543e-06
1.38543e-06
1.38542e-06
1.3875e-06
1.38802e-06
1.38913e-06
1.3878e-06
1.38542e-06
1.38543e-06
1.38543e-06
1.38543e-06
1.38543e-06
1.38543e-06
1.38543e-06
1.38543e-06
1.38542e-06
1.38798e-06
1.38919e-06
1.38771e-06
1.38542e-06
1.38543e-06
1.38543e-06
1.38543e-06
1.38543e-06
1.38543e-06
1.38543e-06
1.38543e-06
1.38542e-06
1.38794e-06
1.38915e-06
1.38776e-06
1.38542e-06
1.38543e-06
1.38543e-06
1.38543e-06
1.38543e-06
1.38543e-06
1.38543e-06
1.38543e-06
1.38542e-06
1.38796e-06
1.38916e-06
1.38896e-06
1.38751e-06
1.38542e-06
1.38543e-06
1.38543e-06
1.38543e-06
1.38543e-06
1.38543e-06
1.38542e-06
1.38764e-06
1.38802e-06
1.38921e-06
1.38908e-06
1.38794e-06
1.38748e-06
1.38542e-06
1.38543e-06
1.38543e-06
1.38543e-06
1.38542e-06
1.3876e-06
1.3879e-06
1.38813e-06
1.38902e-06
1.38793e-06
1.3875e-06
1.38542e-06
1.38542e-06
1.38542e-06
1.38764e-06
1.3879e-06
1.3881e-06
1.38922e-06
1.38902e-06
1.38802e-06
1.38798e-06
1.38794e-06
1.38796e-06
1.38802e-06
1.38813e-06
1.38922e-06
1.38913e-06
1.38919e-06
1.38915e-06
1.38916e-06
1.38921e-06
1.37655e-06
1.37528e-06
1.3752e-06
1.37525e-06
1.37645e-06
1.37657e-06
1.37662e-06
1.37546e-06
1.37488e-06
1.37291e-06
1.37291e-06
1.37291e-06
1.37499e-06
1.37542e-06
1.3765e-06
1.37546e-06
1.37485e-06
1.37291e-06
1.37291e-06
1.37291e-06
1.37291e-06
1.37291e-06
1.37496e-06
1.37542e-06
1.37651e-06
1.37655e-06
1.37488e-06
1.37291e-06
1.37291e-06
1.37291e-06
1.37291e-06
1.37291e-06
1.37291e-06
1.37291e-06
1.37498e-06
1.37551e-06
1.37661e-06
1.37528e-06
1.37291e-06
1.37291e-06
1.37291e-06
1.37291e-06
1.37291e-06
1.37291e-06
1.37291e-06
1.37291e-06
1.37291e-06
1.37546e-06
1.37667e-06
1.3752e-06
1.37291e-06
1.37291e-06
1.37291e-06
1.37291e-06
1.37291e-06
1.37291e-06
1.37291e-06
1.37291e-06
1.37291e-06
1.37542e-06
1.37664e-06
1.37525e-06
1.37291e-06
1.37291e-06
1.37291e-06
1.37291e-06
1.37291e-06
1.37291e-06
1.37291e-06
1.37291e-06
1.37291e-06
1.37544e-06
1.37664e-06
1.37645e-06
1.37499e-06
1.37291e-06
1.37291e-06
1.37291e-06
1.37291e-06
1.37291e-06
1.37291e-06
1.37291e-06
1.37513e-06
1.37551e-06
1.3767e-06
1.37657e-06
1.37542e-06
1.37496e-06
1.37291e-06
1.37291e-06
1.37291e-06
1.37291e-06
1.37291e-06
1.37509e-06
1.37539e-06
1.37561e-06
1.3765e-06
1.37542e-06
1.37498e-06
1.37291e-06
1.37291e-06
1.37291e-06
1.37513e-06
1.37539e-06
1.37558e-06
1.3767e-06
1.37651e-06
1.37551e-06
1.37546e-06
1.37542e-06
1.37544e-06
1.37551e-06
1.37561e-06
1.3767e-06
1.37661e-06
1.37667e-06
1.37664e-06
1.37664e-06
1.3767e-06
1.36403e-06
1.36277e-06
1.36268e-06
1.36273e-06
1.36393e-06
1.36405e-06
1.3641e-06
1.36294e-06
1.36236e-06
1.36039e-06
1.36039e-06
1.36039e-06
1.36248e-06
1.36291e-06
1.36398e-06
1.36294e-06
1.36233e-06
1.36039e-06
1.36039e-06
1.36039e-06
1.36039e-06
1.36039e-06
1.36244e-06
1.3629e-06
1.36399e-06
1.36403e-06
1.36236e-06
1.36039e-06
1.36039e-06
1.36039e-06
1.36039e-06
1.36039e-06
1.36039e-06
1.36039e-06
1.36247e-06
1.36299e-06
1.3641e-06
1.36277e-06
1.36039e-06
1.36039e-06
1.36039e-06
1.36039e-06
1.36039e-06
1.36039e-06
1.36039e-06
1.36039e-06
1.36039e-06
1.36295e-06
1.36416e-06
1.36268e-06
1.36039e-06
1.36039e-06
1.36039e-06
1.36039e-06
1.36039e-06
1.36039e-06
1.36039e-06
1.36039e-06
1.36039e-06
1.36291e-06
1.36412e-06
1.36273e-06
1.36039e-06
1.36039e-06
1.36039e-06
1.36039e-06
1.36039e-06
1.36039e-06
1.36039e-06
1.36039e-06
1.36039e-06
1.36293e-06
1.36412e-06
1.36393e-06
1.36248e-06
1.36039e-06
1.36039e-06
1.36039e-06
1.36039e-06
1.36039e-06
1.36039e-06
1.36039e-06
1.36261e-06
1.36299e-06
1.36418e-06
1.36405e-06
1.36291e-06
1.36244e-06
1.36039e-06
1.36039e-06
1.36039e-06
1.36039e-06
1.36039e-06
1.36257e-06
1.36287e-06
1.36309e-06
1.36398e-06
1.3629e-06
1.36247e-06
1.36039e-06
1.36039e-06
1.36039e-06
1.36261e-06
1.36287e-06
1.36306e-06
1.36418e-06
1.36399e-06
1.36299e-06
1.36295e-06
1.36291e-06
1.36293e-06
1.36299e-06
1.36309e-06
1.36418e-06
1.3641e-06
1.36416e-06
1.36412e-06
1.36412e-06
1.36418e-06
1.35152e-06
1.35025e-06
1.35016e-06
1.35021e-06
1.35141e-06
1.35153e-06
1.35158e-06
1.35043e-06
1.34984e-06
1.34787e-06
1.34787e-06
1.34787e-06
1.34996e-06
1.35039e-06
1.35147e-06
1.35043e-06
1.34981e-06
1.34787e-06
1.34787e-06
1.34787e-06
1.34787e-06
1.34787e-06
1.34993e-06
1.35038e-06
1.35147e-06
1.35152e-06
1.34984e-06
1.34787e-06
1.34787e-06
1.34787e-06
1.34787e-06
1.34787e-06
1.34787e-06
1.34787e-06
1.34995e-06
1.35047e-06
1.35158e-06
1.35025e-06
1.34787e-06
1.34787e-06
1.34787e-06
1.34787e-06
1.34787e-06
1.34787e-06
1.34787e-06
1.34787e-06
1.34787e-06
1.35043e-06
1.35164e-06
1.35016e-06
1.34787e-06
1.34787e-06
1.34787e-06
1.34787e-06
1.34787e-06
1.34787e-06
1.34787e-06
1.34787e-06
1.34787e-06
1.35039e-06
1.3516e-06
1.35021e-06
1.34787e-06
1.34787e-06
1.34787e-06
1.34787e-06
1.34787e-06
1.34787e-06
1.34787e-06
1.34787e-06
1.34787e-06
1.35041e-06
1.35161e-06
1.35141e-06
1.34996e-06
1.34787e-06
1.34787e-06
1.34787e-06
1.34787e-06
1.34787e-06
1.34787e-06
1.34787e-06
1.35009e-06
1.35047e-06
1.35167e-06
1.35153e-06
1.35039e-06
1.34993e-06
1.34787e-06
1.34787e-06
1.34787e-06
1.34787e-06
1.34787e-06
1.35005e-06
1.35035e-06
1.35058e-06
1.35147e-06
1.35038e-06
1.34995e-06
1.34787e-06
1.34787e-06
1.34787e-06
1.35009e-06
1.35035e-06
1.35055e-06
1.35167e-06
1.35147e-06
1.35047e-06
1.35043e-06
1.35039e-06
1.35041e-06
1.35047e-06
1.35058e-06
1.35167e-06
1.35158e-06
1.35164e-06
1.3516e-06
1.35161e-06
1.35167e-06
1.339e-06
1.33773e-06
1.33765e-06
1.3377e-06
1.3389e-06
1.33902e-06
1.33907e-06
1.33791e-06
1.33733e-06
1.33535e-06
1.33535e-06
1.33535e-06
1.33744e-06
1.33787e-06
1.33895e-06
1.33791e-06
1.3373e-06
1.33535e-06
1.33536e-06
1.33536e-06
1.33536e-06
1.33535e-06
1.33741e-06
1.33787e-06
1.33896e-06
1.339e-06
1.33733e-06
1.33535e-06
1.33536e-06
1.33536e-06
1.33536e-06
1.33536e-06
1.33536e-06
1.33535e-06
1.33743e-06
1.33796e-06
1.33906e-06
1.33773e-06
1.33535e-06
1.33536e-06
1.33536e-06
1.33536e-06
1.33536e-06
1.33536e-06
1.33536e-06
1.33536e-06
1.33535e-06
1.33791e-06
1.33912e-06
1.33765e-06
1.33535e-06
1.33536e-06
1.33536e-06
1.33536e-06
1.33536e-06
1.33536e-06
1.33536e-06
1.33536e-06
1.33536e-06
1.33787e-06
1.33909e-06
1.3377e-06
1.33535e-06
1.33536e-06
1.33536e-06
1.33536e-06
1.33536e-06
1.33536e-06
1.33536e-06
1.33536e-06
1.33535e-06
1.33789e-06
1.33909e-06
1.3389e-06
1.33744e-06
1.33535e-06
1.33536e-06
1.33536e-06
1.33536e-06
1.33536e-06
1.33536e-06
1.33535e-06
1.33758e-06
1.33796e-06
1.33915e-06
1.33902e-06
1.33787e-06
1.33741e-06
1.33535e-06
1.33536e-06
1.33536e-06
1.33536e-06
1.33535e-06
1.33754e-06
1.33784e-06
1.33806e-06
1.33895e-06
1.33787e-06
1.33743e-06
1.33535e-06
1.33535e-06
1.33535e-06
1.33758e-06
1.33784e-06
1.33803e-06
1.33915e-06
1.33896e-06
1.33796e-06
1.33791e-06
1.33787e-06
1.33789e-06
1.33796e-06
1.33806e-06
1.33915e-06
1.33906e-06
1.33912e-06
1.33909e-06
1.33909e-06
1.33915e-06
1.32648e-06
1.32522e-06
1.32513e-06
1.32518e-06
1.32638e-06
1.3265e-06
1.32655e-06
1.32539e-06
1.32481e-06
1.32284e-06
1.32284e-06
1.32284e-06
1.32493e-06
1.32536e-06
1.32643e-06
1.32539e-06
1.32478e-06
1.32284e-06
1.32284e-06
1.32284e-06
1.32284e-06
1.32284e-06
1.32489e-06
1.32535e-06
1.32644e-06
1.32648e-06
1.32481e-06
1.32284e-06
1.32284e-06
1.32284e-06
1.32284e-06
1.32284e-06
1.32284e-06
1.32284e-06
1.32492e-06
1.32544e-06
1.32655e-06
1.32522e-06
1.32284e-06
1.32284e-06
1.32284e-06
1.32284e-06
1.32284e-06
1.32284e-06
1.32284e-06
1.32284e-06
1.32284e-06
1.3254e-06
1.32661e-06
1.32513e-06
1.32284e-06
1.32284e-06
1.32284e-06
1.32284e-06
1.32284e-06
1.32284e-06
1.32284e-06
1.32284e-06
1.32284e-06
1.32536e-06
1.32657e-06
1.32518e-06
1.32284e-06
1.32284e-06
1.32284e-06
1.32284e-06
1.32284e-06
1.32284e-06
1.32284e-06
1.32284e-06
1.32284e-06
1.32538e-06
1.32657e-06
1.32638e-06
1.32493e-06
1.32284e-06
1.32284e-06
1.32284e-06
1.32284e-06
1.32284e-06
1.32284e-06
1.32284e-06
1.32506e-06
1.32544e-06
1.32663e-06
1.3265e-06
1.32536e-06
1.32489e-06
1.32284e-06
1.32284e-06
1.32284e-06
1.32284e-06
1.32284e-06
1.32502e-06
1.32532e-06
1.32554e-06
1.32643e-06
1.32535e-06
1.32492e-06
1.32284e-06
1.32284e-06
1.32284e-06
1.32506e-06
1.32532e-06
1.32551e-06
1.32663e-06
1.32644e-06
1.32544e-06
1.3254e-06
1.32536e-06
1.32538e-06
1.32544e-06
1.32554e-06
1.32663e-06
1.32655e-06
1.32661e-06
1.32657e-06
1.32657e-06
1.32663e-06
1.31397e-06
1.3127e-06
1.31261e-06
1.31266e-06
1.31386e-06
1.31398e-06
1.31403e-06
1.31288e-06
1.31229e-06
1.31032e-06
1.31032e-06
1.31032e-06
1.31241e-06
1.31284e-06
1.31392e-06
1.31288e-06
1.31226e-06
1.31032e-06
1.31032e-06
1.31032e-06
1.31032e-06
1.31032e-06
1.31238e-06
1.31283e-06
1.31392e-06
1.31397e-06
1.31229e-06
1.31032e-06
1.31032e-06
1.31032e-06
1.31032e-06
1.31032e-06
1.31032e-06
1.31032e-06
1.3124e-06
1.31292e-06
1.31403e-06
1.3127e-06
1.31032e-06
1.31032e-06
1.31032e-06
1.31032e-06
1.31032e-06
1.31032e-06
1.31032e-06
1.31032e-06
1.31032e-06
1.31288e-06
1.31409e-06
1.31261e-06
1.31032e-06
1.31032e-06
1.31032e-06
1.31032e-06
1.31032e-06
1.31032e-06
1.31032e-06
1.31032e-06
1.31032e-06
1.31284e-06
1.31405e-06
1.31266e-06
1.31032e-06
1.31032e-06
1.31032e-06
1.31032e-06
1.31032e-06
1.31032e-06
1.31032e-06
1.31032e-06
1.31032e-06
1.31286e-06
1.31406e-06
1.31386e-06
1.31241e-06
1.31032e-06
1.31032e-06
1.31032e-06
1.31032e-06
1.31032e-06
1.31032e-06
1.31032e-06
1.31254e-06
1.31293e-06
1.31412e-06
1.31398e-06
1.31284e-06
1.31238e-06
1.31032e-06
1.31032e-06
1.31032e-06
1.31032e-06
1.31032e-06
1.3125e-06
1.3128e-06
1.31303e-06
1.31392e-06
1.31283e-06
1.3124e-06
1.31032e-06
1.31032e-06
1.31032e-06
1.31254e-06
1.3128e-06
1.313e-06
1.31412e-06
1.31392e-06
1.31292e-06
1.31288e-06
1.31284e-06
1.31286e-06
1.31292e-06
1.31303e-06
1.31412e-06
1.31403e-06
1.31409e-06
1.31405e-06
1.31406e-06
1.31412e-06
1.30145e-06
1.30018e-06
1.3001e-06
1.30015e-06
1.30135e-06
1.30147e-06
1.30152e-06
1.30036e-06
1.29978e-06
1.2978e-06
1.29781e-06
1.2978e-06
1.29989e-06
1.30032e-06
1.3014e-06
1.30036e-06
1.29975e-06
1.2978e-06
1.29781e-06
1.2978e-06
1.29781e-06
1.2978e-06
1.29986e-06
1.30032e-06
1.30141e-06
1.30145e-06
1.29978e-06
1.2978e-06
1.29781e-06
1.2978e-06
1.29781e-06
1.2978e-06
1.29781e-06
1.2978e-06
1.29988e-06
1.30041e-06
1.30151e-06
1.30018e-06
1.2978e-06
1.29781e-06
1.2978e-06
1.29781e-06
1.29781e-06
1.29781e-06
1.2978e-06
1.29781e-06
1.2978e-06
1.30036e-06
1.30157e-06
1.3001e-06
1.29781e-06
1.2978e-06
1.29781e-06
1.29781e-06
1.29781e-06
1.29781e-06
1.29781e-06
1.2978e-06
1.29781e-06
1.30032e-06
1.30154e-06
1.30015e-06
1.2978e-06
1.29781e-06
1.2978e-06
1.29781e-06
1.29781e-06
1.29781e-06
1.2978e-06
1.29781e-06
1.2978e-06
1.30034e-06
1.30154e-06
1.30135e-06
1.29989e-06
1.2978e-06
1.29781e-06
1.2978e-06
1.29781e-06
1.29781e-06
1.29781e-06
1.2978e-06
1.30003e-06
1.30041e-06
1.3016e-06
1.30147e-06
1.30032e-06
1.29986e-06
1.2978e-06
1.29781e-06
1.29781e-06
1.29781e-06
1.2978e-06
1.29999e-06
1.30029e-06
1.30051e-06
1.3014e-06
1.30032e-06
1.29988e-06
1.2978e-06
1.29781e-06
1.2978e-06
1.30003e-06
1.30029e-06
1.30048e-06
1.3016e-06
1.30141e-06
1.30041e-06
1.30036e-06
1.30032e-06
1.30034e-06
1.30041e-06
1.30051e-06
1.3016e-06
1.30151e-06
1.30157e-06
1.30154e-06
1.30154e-06
1.3016e-06
1.28893e-06
1.28767e-06
1.28758e-06
1.28763e-06
1.28883e-06
1.28895e-06
1.289e-06
1.28784e-06
1.28726e-06
1.28529e-06
1.28529e-06
1.28529e-06
1.28738e-06
1.28781e-06
1.28888e-06
1.28784e-06
1.28723e-06
1.28529e-06
1.28529e-06
1.28529e-06
1.28529e-06
1.28529e-06
1.28734e-06
1.2878e-06
1.28889e-06
1.28893e-06
1.28726e-06
1.28529e-06
1.28529e-06
1.28529e-06
1.28529e-06
1.28529e-06
1.28529e-06
1.28529e-06
1.28737e-06
1.28789e-06
1.289e-06
1.28767e-06
1.28529e-06
1.28529e-06
1.28529e-06
1.28529e-06
1.28529e-06
1.28529e-06
1.28529e-06
1.28529e-06
1.28529e-06
1.28785e-06
1.28906e-06
1.28758e-06
1.28529e-06
1.28529e-06
1.28529e-06
1.28529e-06
1.28529e-06
1.28529e-06
1.28529e-06
1.28529e-06
1.28529e-06
1.28781e-06
1.28902e-06
1.28763e-06
1.28529e-06
1.28529e-06
1.28529e-06
1.28529e-06
1.28529e-06
1.28529e-06
1.28529e-06
1.28529e-06
1.28529e-06
1.28783e-06
1.28902e-06
1.28883e-06
1.28738e-06
1.28529e-06
1.28529e-06
1.28529e-06
1.28529e-06
1.28529e-06
1.28529e-06
1.28529e-06
1.28751e-06
1.28789e-06
1.28908e-06
1.28895e-06
1.28781e-06
1.28734e-06
1.28529e-06
1.28529e-06
1.28529e-06
1.28529e-06
1.28529e-06
1.28747e-06
1.28777e-06
1.28799e-06
1.28888e-06
1.2878e-06
1.28737e-06
1.28529e-06
1.28529e-06
1.28529e-06
1.28751e-06
1.28777e-06
1.28796e-06
1.28908e-06
1.28889e-06
1.28789e-06
1.28785e-06
1.28781e-06
1.28783e-06
1.28789e-06
1.28799e-06
1.28908e-06
1.289e-06
1.28906e-06
1.28902e-06
1.28902e-06
1.28908e-06
1.27642e-06
1.27515e-06
1.27506e-06
1.27511e-06
1.27631e-06
1.27643e-06
1.27648e-06
1.27533e-06
1.27474e-06
1.27277e-06
1.27277e-06
1.27277e-06
1.27486e-06
1.27529e-06
1.27637e-06
1.27533e-06
1.27471e-06
1.27277e-06
1.27277e-06
1.27277e-06
1.27277e-06
1.27277e-06
1.27483e-06
1.27528e-06
1.27637e-06
1.27642e-06
1.27474e-06
1.27277e-06
1.27277e-06
1.27277e-06
1.27277e-06
1.27277e-06
1.27277e-06
1.27277e-06
1.27485e-06
1.27537e-06
1.27648e-06
1.27515e-06
1.27277e-06
1.27277e-06
1.27277e-06
1.27277e-06
1.27277e-06
1.27277e-06
1.27277e-06
1.27277e-06
1.27277e-06
1.27533e-06
1.27654e-06
1.27506e-06
1.27277e-06
1.27277e-06
1.27277e-06
1.27277e-06
1.27277e-06
1.27277e-06
1.27277e-06
1.27277e-06
1.27277e-06
1.27529e-06
1.2765e-06
1.27511e-06
1.27277e-06
1.27277e-06
1.27277e-06
1.27277e-06
1.27277e-06
1.27277e-06
1.27277e-06
1.27277e-06
1.27277e-06
1.27531e-06
1.27651e-06
1.27631e-06
1.27486e-06
1.27277e-06
1.27277e-06
1.27277e-06
1.27277e-06
1.27277e-06
1.27277e-06
1.27277e-06
1.27499e-06
1.27538e-06
1.27657e-06
1.27643e-06
1.27529e-06
1.27483e-06
1.27277e-06
1.27277e-06
1.27277e-06
1.27277e-06
1.27277e-06
1.27495e-06
1.27525e-06
1.27548e-06
1.27637e-06
1.27528e-06
1.27485e-06
1.27277e-06
1.27277e-06
1.27277e-06
1.27499e-06
1.27525e-06
1.27545e-06
1.27657e-06
1.27637e-06
1.27537e-06
1.27533e-06
1.27529e-06
1.27531e-06
1.27538e-06
1.27548e-06
1.27657e-06
1.27648e-06
1.27654e-06
1.2765e-06
1.27651e-06
1.27657e-06
1.2639e-06
1.26263e-06
1.26255e-06
1.2626e-06
1.2638e-06
1.26392e-06
1.26397e-06
1.26281e-06
1.26223e-06
1.26025e-06
1.26026e-06
1.26025e-06
1.26234e-06
1.26277e-06
1.26385e-06
1.26281e-06
1.2622e-06
1.26025e-06
1.26026e-06
1.26026e-06
1.26026e-06
1.26025e-06
1.26231e-06
1.26277e-06
1.26386e-06
1.2639e-06
1.26223e-06
1.26025e-06
1.26026e-06
1.26025e-06
1.26026e-06
1.26025e-06
1.26026e-06
1.26025e-06
1.26233e-06
1.26286e-06
1.26396e-06
1.26263e-06
1.26025e-06
1.26026e-06
1.26025e-06
1.26026e-06
1.26026e-06
1.26026e-06
1.26025e-06
1.26026e-06
1.26025e-06
1.26281e-06
1.26402e-06
1.26255e-06
1.26026e-06
1.26026e-06
1.26026e-06
1.26026e-06
1.26026e-06
1.26026e-06
1.26026e-06
1.26026e-06
1.26026e-06
1.26277e-06
1.26399e-06
1.2626e-06
1.26025e-06
1.26026e-06
1.26025e-06
1.26026e-06
1.26026e-06
1.26026e-06
1.26025e-06
1.26026e-06
1.26025e-06
1.26279e-06
1.26399e-06
1.2638e-06
1.26234e-06
1.26025e-06
1.26026e-06
1.26025e-06
1.26026e-06
1.26025e-06
1.26026e-06
1.26025e-06
1.26248e-06
1.26286e-06
1.26405e-06
1.26392e-06
1.26277e-06
1.26231e-06
1.26025e-06
1.26026e-06
1.26026e-06
1.26026e-06
1.26025e-06
1.26244e-06
1.26274e-06
1.26296e-06
1.26385e-06
1.26277e-06
1.26233e-06
1.26025e-06
1.26026e-06
1.26025e-06
1.26248e-06
1.26274e-06
1.26293e-06
1.26405e-06
1.26386e-06
1.26286e-06
1.26281e-06
1.26277e-06
1.26279e-06
1.26286e-06
1.26296e-06
1.26405e-06
1.26396e-06
1.26402e-06
1.26399e-06
1.26399e-06
1.26405e-06
1.25138e-06
1.25012e-06
1.25003e-06
1.25008e-06
1.25128e-06
1.2514e-06
1.25145e-06
1.25029e-06
1.24971e-06
1.24774e-06
1.24774e-06
1.24774e-06
1.24983e-06
1.25026e-06
1.25133e-06
1.25029e-06
1.24968e-06
1.24774e-06
1.24774e-06
1.24774e-06
1.24774e-06
1.24774e-06
1.24979e-06
1.25025e-06
1.25134e-06
1.25138e-06
1.24971e-06
1.24774e-06
1.24774e-06
1.24774e-06
1.24774e-06
1.24774e-06
1.24774e-06
1.24774e-06
1.24982e-06
1.25034e-06
1.25145e-06
1.25012e-06
1.24774e-06
1.24774e-06
1.24774e-06
1.24774e-06
1.24774e-06
1.24774e-06
1.24774e-06
1.24774e-06
1.24774e-06
1.2503e-06
1.25151e-06
1.25003e-06
1.24774e-06
1.24774e-06
1.24774e-06
1.24774e-06
1.24774e-06
1.24774e-06
1.24774e-06
1.24774e-06
1.24774e-06
1.25026e-06
1.25147e-06
1.25008e-06
1.24774e-06
1.24774e-06
1.24774e-06
1.24774e-06
1.24774e-06
1.24774e-06
1.24774e-06
1.24774e-06
1.24774e-06
1.25028e-06
1.25147e-06
1.25128e-06
1.24983e-06
1.24774e-06
1.24774e-06
1.24774e-06
1.24774e-06
1.24774e-06
1.24774e-06
1.24774e-06
1.24996e-06
1.25034e-06
1.25153e-06
1.2514e-06
1.25026e-06
1.24979e-06
1.24774e-06
1.24774e-06
1.24774e-06
1.24774e-06
1.24774e-06
1.24992e-06
1.25022e-06
1.25044e-06
1.25133e-06
1.25025e-06
1.24982e-06
1.24774e-06
1.24774e-06
1.24774e-06
1.24996e-06
1.25022e-06
1.25041e-06
1.25153e-06
1.25134e-06
1.25034e-06
1.2503e-06
1.25026e-06
1.25028e-06
1.25034e-06
1.25044e-06
1.25153e-06
1.25145e-06
1.25151e-06
1.25147e-06
1.25147e-06
1.25153e-06
1.23887e-06
1.2376e-06
1.23751e-06
1.23756e-06
1.23876e-06
1.23888e-06
1.23893e-06
1.23778e-06
1.23719e-06
1.23522e-06
1.23522e-06
1.23522e-06
1.23731e-06
1.23774e-06
1.23882e-06
1.23778e-06
1.23716e-06
1.23522e-06
1.23522e-06
1.23522e-06
1.23522e-06
1.23522e-06
1.23728e-06
1.23773e-06
1.23882e-06
1.23887e-06
1.23719e-06
1.23522e-06
1.23522e-06
1.23522e-06
1.23522e-06
1.23522e-06
1.23522e-06
1.23522e-06
1.2373e-06
1.23782e-06
1.23893e-06
1.2376e-06
1.23522e-06
1.23522e-06
1.23522e-06
1.23522e-06
1.23522e-06
1.23522e-06
1.23522e-06
1.23522e-06
1.23522e-06
1.23778e-06
1.23899e-06
1.23751e-06
1.23522e-06
1.23522e-06
1.23522e-06
1.23522e-06
1.23522e-06
1.23522e-06
1.23522e-06
1.23522e-06
1.23522e-06
1.23774e-06
1.23895e-06
1.23756e-06
1.23522e-06
1.23522e-06
1.23522e-06
1.23522e-06