/*--------------------------------*- C++ -*----------------------------------*\
| =========                 |                                                 |
| \\      /  F ield         | OpenFOAM: The Open Source CFD Toolbox           |
|  \\    /   O peration     | Version:  v2012                                 |
|   \\  /    A nd           | Website:  www.openfoam.com                      |
|    \\/     M anipulation  |                                                 |
\*---------------------------------------------------------------------------*/
FoamFile
{
    version     2.0;
    format      ascii;
    class       volScalarField;
    location    "69";
    object      p;
}
// * * * * * * * * * * * * * * * * * * * * * * * * * * * * * * * * * * * * * //

dimensions      [0 2 -2 0 0 0 0];


internalField   nonuniform List<scalar> 
292667
(
1.0664e-06
1.05744e-06
1.05677e-06
1.05683e-06
1.05773e-06
1.06726e-06
1.05765e-06
1.05534e-06
1.05398e-06
1.05342e-06
1.05349e-06
1.05422e-06
1.05578e-06
1.05829e-06
1.05765e-06
1.05467e-06
1.05279e-06
1.05175e-06
1.05131e-06
1.05137e-06
1.05194e-06
1.05314e-06
1.05525e-06
1.05846e-06
1.0664e-06
1.05534e-06
1.05279e-06
1.05127e-06
1.05041e-06
1.05005e-06
1.05009e-06
1.05057e-06
1.05156e-06
1.05329e-06
1.05613e-06
1.06587e-06
1.05744e-06
1.05398e-06
1.05175e-06
1.05041e-06
1.04965e-06
1.04932e-06
1.04937e-06
1.04979e-06
1.05068e-06
1.0522e-06
1.05471e-06
1.06078e-06
1.05677e-06
1.05342e-06
1.05131e-06
1.05005e-06
1.04932e-06
1.04901e-06
1.04905e-06
1.04946e-06
1.0503e-06
1.05174e-06
1.05413e-06
1.05926e-06
1.05683e-06
1.05349e-06
1.05137e-06
1.05009e-06
1.04937e-06
1.04905e-06
1.04909e-06
1.04951e-06
1.05035e-06
1.05181e-06
1.05421e-06
1.05956e-06
1.05773e-06
1.05422e-06
1.05194e-06
1.05057e-06
1.04979e-06
1.04946e-06
1.04951e-06
1.04994e-06
1.05085e-06
1.05241e-06
1.05499e-06
1.06107e-06
1.06726e-06
1.05578e-06
1.05314e-06
1.05156e-06
1.05068e-06
1.0503e-06
1.05035e-06
1.05085e-06
1.05188e-06
1.05369e-06
1.05663e-06
1.06573e-06
1.05829e-06
1.05525e-06
1.05329e-06
1.0522e-06
1.05174e-06
1.05181e-06
1.05241e-06
1.05369e-06
1.05591e-06
1.06174e-06
1.05846e-06
1.05613e-06
1.05471e-06
1.05413e-06
1.05421e-06
1.05499e-06
1.05663e-06
1.06174e-06
1.06587e-06
1.06078e-06
1.05926e-06
1.05956e-06
1.06107e-06
1.06573e-06
1.04228e-06
1.04163e-06
1.0416e-06
1.04165e-06
1.04232e-06
1.04217e-06
1.04231e-06
1.0418e-06
1.04147e-06
1.04031e-06
1.04029e-06
1.04031e-06
1.04163e-06
1.04187e-06
1.04237e-06
1.0418e-06
1.04145e-06
1.04035e-06
1.04031e-06
1.04035e-06
1.04031e-06
1.04035e-06
1.04162e-06
1.04186e-06
1.04235e-06
1.04228e-06
1.04147e-06
1.04035e-06
1.04029e-06
1.04032e-06
1.0403e-06
1.04032e-06
1.04029e-06
1.04035e-06
1.04162e-06
1.04188e-06
1.04237e-06
1.04163e-06
1.04031e-06
1.04031e-06
1.04032e-06
1.04028e-06
1.04028e-06
1.04028e-06
1.04032e-06
1.04031e-06
1.04031e-06
1.04204e-06
1.04255e-06
1.0416e-06
1.04029e-06
1.04035e-06
1.0403e-06
1.04028e-06
1.04027e-06
1.04028e-06
1.0403e-06
1.04035e-06
1.04029e-06
1.04206e-06
1.04248e-06
1.04165e-06
1.04031e-06
1.04031e-06
1.04032e-06
1.04028e-06
1.04028e-06
1.04028e-06
1.04032e-06
1.04031e-06
1.04031e-06
1.04206e-06
1.0425e-06
1.04232e-06
1.04163e-06
1.04035e-06
1.04029e-06
1.04032e-06
1.0403e-06
1.04032e-06
1.04029e-06
1.04035e-06
1.04182e-06
1.04195e-06
1.0425e-06
1.04217e-06
1.04187e-06
1.04162e-06
1.04035e-06
1.04031e-06
1.04035e-06
1.04031e-06
1.04035e-06
1.04179e-06
1.04192e-06
1.04191e-06
1.04237e-06
1.04186e-06
1.04162e-06
1.04031e-06
1.04029e-06
1.04031e-06
1.04182e-06
1.04192e-06
1.04195e-06
1.04246e-06
1.04235e-06
1.04188e-06
1.04204e-06
1.04206e-06
1.04206e-06
1.04195e-06
1.04191e-06
1.04246e-06
1.04237e-06
1.04255e-06
1.04248e-06
1.0425e-06
1.0425e-06
1.03342e-06
1.03271e-06
1.03265e-06
1.0327e-06
1.03344e-06
1.03345e-06
1.03344e-06
1.03282e-06
1.03242e-06
1.03131e-06
1.03131e-06
1.03131e-06
1.03258e-06
1.03285e-06
1.03345e-06
1.03282e-06
1.0324e-06
1.03135e-06
1.03135e-06
1.03139e-06
1.03135e-06
1.03135e-06
1.03258e-06
1.03285e-06
1.03345e-06
1.03342e-06
1.03242e-06
1.03135e-06
1.03137e-06
1.03141e-06
1.03141e-06
1.03141e-06
1.03137e-06
1.03135e-06
1.03259e-06
1.03292e-06
1.03347e-06
1.03271e-06
1.03131e-06
1.03135e-06
1.03141e-06
1.03142e-06
1.03144e-06
1.03142e-06
1.03141e-06
1.03135e-06
1.03131e-06
1.03299e-06
1.03362e-06
1.03265e-06
1.03131e-06
1.03139e-06
1.03141e-06
1.03144e-06
1.03144e-06
1.03144e-06
1.03141e-06
1.03139e-06
1.03131e-06
1.03299e-06
1.03364e-06
1.0327e-06
1.03131e-06
1.03135e-06
1.03141e-06
1.03142e-06
1.03144e-06
1.03142e-06
1.03141e-06
1.03135e-06
1.03131e-06
1.03299e-06
1.03364e-06
1.03344e-06
1.03258e-06
1.03135e-06
1.03137e-06
1.03141e-06
1.03141e-06
1.03141e-06
1.03137e-06
1.03135e-06
1.0328e-06
1.03297e-06
1.03361e-06
1.03345e-06
1.03285e-06
1.03258e-06
1.03135e-06
1.03135e-06
1.03139e-06
1.03135e-06
1.03135e-06
1.03278e-06
1.03291e-06
1.03299e-06
1.03345e-06
1.03285e-06
1.03259e-06
1.03131e-06
1.03131e-06
1.03131e-06
1.0328e-06
1.03291e-06
1.03298e-06
1.03358e-06
1.03345e-06
1.03292e-06
1.03299e-06
1.03299e-06
1.03299e-06
1.03297e-06
1.03299e-06
1.03358e-06
1.03347e-06
1.03362e-06
1.03364e-06
1.03364e-06
1.03361e-06
1.02458e-06
1.02386e-06
1.0238e-06
1.02385e-06
1.0246e-06
1.02462e-06
1.0246e-06
1.02397e-06
1.02355e-06
1.02242e-06
1.02242e-06
1.02242e-06
1.0237e-06
1.02399e-06
1.02461e-06
1.02397e-06
1.02352e-06
1.02244e-06
1.02245e-06
1.02247e-06
1.02245e-06
1.02244e-06
1.02369e-06
1.02399e-06
1.02461e-06
1.02458e-06
1.02355e-06
1.02244e-06
1.02246e-06
1.02249e-06
1.0225e-06
1.02249e-06
1.02246e-06
1.02244e-06
1.02371e-06
1.02407e-06
1.02463e-06
1.02386e-06
1.02242e-06
1.02245e-06
1.02249e-06
1.02251e-06
1.02252e-06
1.02251e-06
1.02249e-06
1.02245e-06
1.02242e-06
1.02413e-06
1.02478e-06
1.0238e-06
1.02242e-06
1.02247e-06
1.0225e-06
1.02252e-06
1.02253e-06
1.02252e-06
1.0225e-06
1.02247e-06
1.02242e-06
1.02412e-06
1.0248e-06
1.02385e-06
1.02242e-06
1.02245e-06
1.02249e-06
1.02251e-06
1.02252e-06
1.02251e-06
1.02249e-06
1.02245e-06
1.02242e-06
1.02412e-06
1.0248e-06
1.0246e-06
1.0237e-06
1.02244e-06
1.02246e-06
1.02249e-06
1.0225e-06
1.02249e-06
1.02246e-06
1.02244e-06
1.02392e-06
1.02411e-06
1.02477e-06
1.02462e-06
1.02399e-06
1.02369e-06
1.02244e-06
1.02245e-06
1.02247e-06
1.02246e-06
1.02244e-06
1.0239e-06
1.02404e-06
1.02415e-06
1.02461e-06
1.02399e-06
1.02371e-06
1.02242e-06
1.02242e-06
1.02242e-06
1.02392e-06
1.02404e-06
1.02413e-06
1.02475e-06
1.02461e-06
1.02407e-06
1.02413e-06
1.02412e-06
1.02412e-06
1.02411e-06
1.02415e-06
1.02475e-06
1.02463e-06
1.02478e-06
1.0248e-06
1.0248e-06
1.02477e-06
1.01574e-06
1.01502e-06
1.01496e-06
1.01501e-06
1.01576e-06
1.01578e-06
1.01576e-06
1.01512e-06
1.0147e-06
1.01356e-06
1.01356e-06
1.01356e-06
1.01485e-06
1.01514e-06
1.01577e-06
1.01512e-06
1.01467e-06
1.01357e-06
1.01358e-06
1.01359e-06
1.01358e-06
1.01357e-06
1.01483e-06
1.01514e-06
1.01577e-06
1.01574e-06
1.0147e-06
1.01357e-06
1.01359e-06
1.0136e-06
1.01361e-06
1.0136e-06
1.01359e-06
1.01357e-06
1.01486e-06
1.01522e-06
1.01579e-06
1.01502e-06
1.01356e-06
1.01358e-06
1.0136e-06
1.01362e-06
1.01363e-06
1.01362e-06
1.0136e-06
1.01358e-06
1.01356e-06
1.01528e-06
1.01594e-06
1.01496e-06
1.01356e-06
1.01359e-06
1.01361e-06
1.01363e-06
1.01363e-06
1.01363e-06
1.01361e-06
1.01359e-06
1.01356e-06
1.01527e-06
1.01596e-06
1.01501e-06
1.01356e-06
1.01358e-06
1.0136e-06
1.01362e-06
1.01363e-06
1.01362e-06
1.0136e-06
1.01358e-06
1.01356e-06
1.01528e-06
1.01596e-06
1.01576e-06
1.01485e-06
1.01357e-06
1.01359e-06
1.0136e-06
1.01361e-06
1.0136e-06
1.01359e-06
1.01357e-06
1.01507e-06
1.01527e-06
1.01593e-06
1.01578e-06
1.01514e-06
1.01483e-06
1.01357e-06
1.01358e-06
1.01359e-06
1.01358e-06
1.01357e-06
1.01504e-06
1.01519e-06
1.01531e-06
1.01577e-06
1.01514e-06
1.01486e-06
1.01356e-06
1.01356e-06
1.01356e-06
1.01507e-06
1.01519e-06
1.01529e-06
1.01591e-06
1.01577e-06
1.01522e-06
1.01528e-06
1.01527e-06
1.01528e-06
1.01527e-06
1.01531e-06
1.01591e-06
1.01579e-06
1.01594e-06
1.01596e-06
1.01596e-06
1.01593e-06
1.0069e-06
1.00618e-06
1.00612e-06
1.00616e-06
1.00692e-06
1.00694e-06
1.00692e-06
1.00628e-06
1.00586e-06
1.00471e-06
1.00471e-06
1.00471e-06
1.00601e-06
1.0063e-06
1.00693e-06
1.00628e-06
1.00582e-06
1.00471e-06
1.00472e-06
1.00472e-06
1.00472e-06
1.00471e-06
1.00598e-06
1.0063e-06
1.00693e-06
1.0069e-06
1.00586e-06
1.00471e-06
1.00472e-06
1.00473e-06
1.00474e-06
1.00473e-06
1.00472e-06
1.00471e-06
1.00601e-06
1.00638e-06
1.00695e-06
1.00618e-06
1.00471e-06
1.00472e-06
1.00473e-06
1.00474e-06
1.00475e-06
1.00474e-06
1.00473e-06
1.00472e-06
1.00471e-06
1.00644e-06
1.0071e-06
1.00612e-06
1.00471e-06
1.00472e-06
1.00474e-06
1.00475e-06
1.00475e-06
1.00475e-06
1.00474e-06
1.00472e-06
1.00471e-06
1.00643e-06
1.00712e-06
1.00616e-06
1.00471e-06
1.00472e-06
1.00473e-06
1.00474e-06
1.00475e-06
1.00474e-06
1.00473e-06
1.00472e-06
1.00471e-06
1.00643e-06
1.00712e-06
1.00691e-06
1.00601e-06
1.00471e-06
1.00472e-06
1.00473e-06
1.00474e-06
1.00473e-06
1.00472e-06
1.00471e-06
1.00622e-06
1.00643e-06
1.00709e-06
1.00694e-06
1.0063e-06
1.00598e-06
1.00471e-06
1.00472e-06
1.00472e-06
1.00472e-06
1.00471e-06
1.00619e-06
1.00635e-06
1.00647e-06
1.00693e-06
1.0063e-06
1.00601e-06
1.00471e-06
1.00471e-06
1.00471e-06
1.00622e-06
1.00635e-06
1.00645e-06
1.00707e-06
1.00693e-06
1.00638e-06
1.00644e-06
1.00643e-06
1.00643e-06
1.00643e-06
1.00647e-06
1.00707e-06
1.00695e-06
1.0071e-06
1.00712e-06
1.00712e-06
1.00709e-06
9.98062e-07
9.97335e-07
9.97273e-07
9.97321e-07
9.98073e-07
9.98094e-07
9.98077e-07
9.97437e-07
9.97011e-07
9.95863e-07
9.95864e-07
9.95863e-07
9.97162e-07
9.97456e-07
9.98086e-07
9.97437e-07
9.96975e-07
9.95866e-07
9.9587e-07
9.95871e-07
9.9587e-07
9.95866e-07
9.9714e-07
9.97453e-07
9.98089e-07
9.98062e-07
9.97011e-07
9.95866e-07
9.95871e-07
9.95876e-07
9.95878e-07
9.95876e-07
9.95871e-07
9.95866e-07
9.97164e-07
9.97539e-07
9.98108e-07
9.97335e-07
9.95863e-07
9.9587e-07
9.95877e-07
9.95882e-07
9.95884e-07
9.95882e-07
9.95877e-07
9.9587e-07
9.95863e-07
9.97595e-07
9.98257e-07
9.97273e-07
9.95864e-07
9.95871e-07
9.95878e-07
9.95884e-07
9.95886e-07
9.95884e-07
9.95878e-07
9.95871e-07
9.95864e-07
9.97586e-07
9.98274e-07
9.97321e-07
9.95863e-07
9.9587e-07
9.95877e-07
9.95882e-07
9.95884e-07
9.95882e-07
9.95877e-07
9.9587e-07
9.95863e-07
9.97589e-07
9.98275e-07
9.98072e-07
9.97162e-07
9.95866e-07
9.95871e-07
9.95877e-07
9.95878e-07
9.95877e-07
9.95871e-07
9.95866e-07
9.97379e-07
9.97587e-07
9.98247e-07
9.98094e-07
9.97455e-07
9.9714e-07
9.95866e-07
9.9587e-07
9.95871e-07
9.9587e-07
9.95866e-07
9.97347e-07
9.97507e-07
9.9763e-07
9.98086e-07
9.97453e-07
9.97164e-07
9.95863e-07
9.95864e-07
9.95863e-07
9.97379e-07
9.97507e-07
9.97606e-07
9.98228e-07
9.98089e-07
9.97539e-07
9.97595e-07
9.97586e-07
9.97588e-07
9.97587e-07
9.9763e-07
9.98228e-07
9.98108e-07
9.98257e-07
9.98274e-07
9.98274e-07
9.98247e-07
9.89219e-07
9.88492e-07
9.8843e-07
9.88477e-07
9.8923e-07
9.89252e-07
9.89235e-07
9.88594e-07
9.88168e-07
9.87018e-07
9.87019e-07
9.87018e-07
9.88318e-07
9.88612e-07
9.89244e-07
9.88594e-07
9.88131e-07
9.8702e-07
9.87023e-07
9.87023e-07
9.87023e-07
9.8702e-07
9.88296e-07
9.8861e-07
9.89247e-07
9.89219e-07
9.88168e-07
9.8702e-07
9.87023e-07
9.87026e-07
9.87027e-07
9.87026e-07
9.87023e-07
9.87019e-07
9.88321e-07
9.88696e-07
9.89266e-07
9.88492e-07
9.87018e-07
9.87023e-07
9.87026e-07
9.87029e-07
9.8703e-07
9.87029e-07
9.87026e-07
9.87023e-07
9.87018e-07
9.88752e-07
9.89414e-07
9.8843e-07
9.87019e-07
9.87023e-07
9.87027e-07
9.8703e-07
9.87031e-07
9.8703e-07
9.87027e-07
9.87023e-07
9.87019e-07
9.88743e-07
9.89432e-07
9.88477e-07
9.87018e-07
9.87023e-07
9.87026e-07
9.87029e-07
9.8703e-07
9.87029e-07
9.87026e-07
9.87023e-07
9.87018e-07
9.88746e-07
9.89432e-07
9.8923e-07
9.88318e-07
9.8702e-07
9.87023e-07
9.87026e-07
9.87027e-07
9.87026e-07
9.87023e-07
9.87019e-07
9.88536e-07
9.88744e-07
9.89405e-07
9.89252e-07
9.88612e-07
9.88296e-07
9.8702e-07
9.87023e-07
9.87023e-07
9.87023e-07
9.8702e-07
9.88503e-07
9.88664e-07
9.88788e-07
9.89244e-07
9.8861e-07
9.88321e-07
9.87018e-07
9.87019e-07
9.87018e-07
9.88536e-07
9.88664e-07
9.88763e-07
9.89386e-07
9.89247e-07
9.88696e-07
9.88752e-07
9.88743e-07
9.88746e-07
9.88744e-07
9.88788e-07
9.89386e-07
9.89266e-07
9.89415e-07
9.89432e-07
9.89432e-07
9.89405e-07
9.80376e-07
9.79649e-07
9.79586e-07
9.79634e-07
9.80387e-07
9.80409e-07
9.80392e-07
9.79751e-07
9.79324e-07
9.78174e-07
9.78175e-07
9.78174e-07
9.79475e-07
9.79769e-07
9.80401e-07
9.79751e-07
9.79288e-07
9.78175e-07
9.78177e-07
9.78177e-07
9.78177e-07
9.78175e-07
9.79452e-07
9.79767e-07
9.80404e-07
9.80376e-07
9.79325e-07
9.78175e-07
9.78177e-07
9.78178e-07
9.78179e-07
9.78178e-07
9.78177e-07
9.78175e-07
9.79477e-07
9.79853e-07
9.80423e-07
9.79649e-07
9.78174e-07
9.78177e-07
9.78178e-07
9.78181e-07
9.78181e-07
9.78181e-07
9.78178e-07
9.78177e-07
9.78174e-07
9.79909e-07
9.80572e-07
9.79586e-07
9.78175e-07
9.78177e-07
9.78179e-07
9.78181e-07
9.78182e-07
9.78181e-07
9.78179e-07
9.78177e-07
9.78175e-07
9.799e-07
9.80589e-07
9.79634e-07
9.78174e-07
9.78177e-07
9.78178e-07
9.78181e-07
9.78181e-07
9.78181e-07
9.78178e-07
9.78177e-07
9.78174e-07
9.79902e-07
9.80589e-07
9.80387e-07
9.79475e-07
9.78175e-07
9.78177e-07
9.78178e-07
9.78179e-07
9.78178e-07
9.78177e-07
9.78175e-07
9.79693e-07
9.79901e-07
9.80562e-07
9.80409e-07
9.79769e-07
9.79452e-07
9.78175e-07
9.78177e-07
9.78177e-07
9.78177e-07
9.78175e-07
9.7966e-07
9.79821e-07
9.79945e-07
9.80401e-07
9.79767e-07
9.79477e-07
9.78174e-07
9.78175e-07
9.78174e-07
9.79693e-07
9.79821e-07
9.7992e-07
9.80543e-07
9.80404e-07
9.79853e-07
9.79909e-07
9.799e-07
9.79902e-07
9.79901e-07
9.79945e-07
9.80543e-07
9.80423e-07
9.80572e-07
9.80589e-07
9.80589e-07
9.80562e-07
9.71533e-07
9.70805e-07
9.70743e-07
9.70791e-07
9.71544e-07
9.71566e-07
9.71549e-07
9.70908e-07
9.70481e-07
9.6933e-07
9.69331e-07
9.6933e-07
9.70632e-07
9.70926e-07
9.71558e-07
9.70908e-07
9.70444e-07
9.69331e-07
9.69333e-07
9.69333e-07
9.69333e-07
9.69331e-07
9.70609e-07
9.70924e-07
9.71561e-07
9.71533e-07
9.70481e-07
9.69331e-07
9.69333e-07
9.69333e-07
9.69334e-07
9.69333e-07
9.69333e-07
9.69331e-07
9.70634e-07
9.7101e-07
9.7158e-07
9.70805e-07
9.6933e-07
9.69333e-07
9.69333e-07
9.69334e-07
9.69334e-07
9.69335e-07
9.69333e-07
9.69333e-07
9.6933e-07
9.71065e-07
9.71729e-07
9.70743e-07
9.69331e-07
9.69332e-07
9.69334e-07
9.69334e-07
9.69335e-07
9.69334e-07
9.69334e-07
9.69333e-07
9.69331e-07
9.71057e-07
9.71746e-07
9.70791e-07
9.6933e-07
9.69333e-07
9.69333e-07
9.69335e-07
9.69334e-07
9.69334e-07
9.69333e-07
9.69333e-07
9.6933e-07
9.71059e-07
9.71746e-07
9.71544e-07
9.70632e-07
9.69331e-07
9.69333e-07
9.69333e-07
9.69334e-07
9.69333e-07
9.69333e-07
9.69331e-07
9.70849e-07
9.71058e-07
9.71719e-07
9.71566e-07
9.70926e-07
9.70609e-07
9.69331e-07
9.69333e-07
9.69333e-07
9.69333e-07
9.69331e-07
9.70816e-07
9.70978e-07
9.71102e-07
9.71558e-07
9.70924e-07
9.70634e-07
9.6933e-07
9.69331e-07
9.6933e-07
9.70849e-07
9.70977e-07
9.71077e-07
9.717e-07
9.71561e-07
9.7101e-07
9.71065e-07
9.71056e-07
9.71059e-07
9.71058e-07
9.71102e-07
9.717e-07
9.7158e-07
9.71729e-07
9.71746e-07
9.71746e-07
9.71719e-07
9.6269e-07
9.61962e-07
9.619e-07
9.61948e-07
9.62701e-07
9.62723e-07
9.62706e-07
9.62065e-07
9.61638e-07
9.60487e-07
9.60488e-07
9.60487e-07
9.61789e-07
9.62083e-07
9.62715e-07
9.62065e-07
9.61601e-07
9.60487e-07
9.60489e-07
9.60488e-07
9.60489e-07
9.60488e-07
9.61766e-07
9.62081e-07
9.62718e-07
9.6269e-07
9.61638e-07
9.60487e-07
9.60489e-07
9.60489e-07
9.60489e-07
9.60489e-07
9.60489e-07
9.60487e-07
9.61791e-07
9.62167e-07
9.62737e-07
9.61962e-07
9.60487e-07
9.60489e-07
9.60489e-07
9.6049e-07
9.60489e-07
9.6049e-07
9.60489e-07
9.60489e-07
9.60487e-07
9.62222e-07
9.62885e-07
9.619e-07
9.60488e-07
9.60488e-07
9.60489e-07
9.60489e-07
9.6049e-07
9.60489e-07
9.60489e-07
9.60488e-07
9.60488e-07
9.62213e-07
9.62902e-07
9.61948e-07
9.60487e-07
9.60489e-07
9.60489e-07
9.6049e-07
9.60489e-07
9.6049e-07
9.60489e-07
9.60489e-07
9.60487e-07
9.62216e-07
9.62903e-07
9.62701e-07
9.61789e-07
9.60487e-07
9.60489e-07
9.60489e-07
9.60489e-07
9.60489e-07
9.60489e-07
9.60487e-07
9.62006e-07
9.62215e-07
9.62876e-07
9.62723e-07
9.62083e-07
9.61766e-07
9.60487e-07
9.60489e-07
9.60488e-07
9.60489e-07
9.60487e-07
9.61973e-07
9.62134e-07
9.62259e-07
9.62715e-07
9.62081e-07
9.61791e-07
9.60487e-07
9.60488e-07
9.60487e-07
9.62006e-07
9.62134e-07
9.62234e-07
9.62857e-07
9.62718e-07
9.62167e-07
9.62222e-07
9.62213e-07
9.62216e-07
9.62215e-07
9.62259e-07
9.62857e-07
9.62737e-07
9.62885e-07
9.62902e-07
9.62903e-07
9.62876e-07
9.53847e-07
9.53119e-07
9.53057e-07
9.53105e-07
9.53858e-07
9.5388e-07
9.53863e-07
9.53222e-07
9.52795e-07
9.51644e-07
9.51644e-07
9.51644e-07
9.52945e-07
9.5324e-07
9.53872e-07
9.53222e-07
9.52758e-07
9.51644e-07
9.51646e-07
9.51645e-07
9.51646e-07
9.51644e-07
9.52923e-07
9.53237e-07
9.53875e-07
9.53847e-07
9.52795e-07
9.51644e-07
9.51645e-07
9.51645e-07
9.51645e-07
9.51645e-07
9.51645e-07
9.51644e-07
9.52948e-07
9.53323e-07
9.53894e-07
9.53119e-07
9.51644e-07
9.51646e-07
9.51645e-07
9.51646e-07
9.51645e-07
9.51646e-07
9.51645e-07
9.51646e-07
9.51644e-07
9.53379e-07
9.54042e-07
9.53057e-07
9.51644e-07
9.51645e-07
9.51645e-07
9.51645e-07
9.51646e-07
9.51645e-07
9.51645e-07
9.51645e-07
9.51644e-07
9.5337e-07
9.54059e-07
9.53105e-07
9.51644e-07
9.51646e-07
9.51645e-07
9.51646e-07
9.51645e-07
9.51646e-07
9.51645e-07
9.51646e-07
9.51644e-07
9.53373e-07
9.5406e-07
9.53858e-07
9.52945e-07
9.51644e-07
9.51645e-07
9.51645e-07
9.51645e-07
9.51645e-07
9.51645e-07
9.51644e-07
9.53163e-07
9.53372e-07
9.54032e-07
9.5388e-07
9.5324e-07
9.52923e-07
9.51644e-07
9.51646e-07
9.51645e-07
9.51646e-07
9.51644e-07
9.5313e-07
9.53291e-07
9.53416e-07
9.53872e-07
9.53237e-07
9.52948e-07
9.51644e-07
9.51644e-07
9.51644e-07
9.53163e-07
9.53291e-07
9.53391e-07
9.54014e-07
9.53875e-07
9.53323e-07
9.53379e-07
9.5337e-07
9.53373e-07
9.53372e-07
9.53416e-07
9.54014e-07
9.53894e-07
9.54042e-07
9.54059e-07
9.5406e-07
9.54032e-07
9.45004e-07
9.44276e-07
9.44214e-07
9.44262e-07
9.45015e-07
9.45037e-07
9.4502e-07
9.44379e-07
9.43951e-07
9.428e-07
9.42801e-07
9.428e-07
9.44102e-07
9.44397e-07
9.45029e-07
9.44379e-07
9.43915e-07
9.42801e-07
9.42803e-07
9.42802e-07
9.42803e-07
9.42801e-07
9.44079e-07
9.44394e-07
9.45032e-07
9.45004e-07
9.43952e-07
9.42801e-07
9.42802e-07
9.42801e-07
9.42802e-07
9.42801e-07
9.42802e-07
9.42801e-07
9.44105e-07
9.4448e-07
9.45051e-07
9.44276e-07
9.428e-07
9.42803e-07
9.42801e-07
9.42802e-07
9.42802e-07
9.42802e-07
9.42801e-07
9.42802e-07
9.428e-07
9.44536e-07
9.45199e-07
9.44214e-07
9.42801e-07
9.42802e-07
9.42802e-07
9.42802e-07
9.42802e-07
9.42802e-07
9.42802e-07
9.42802e-07
9.42801e-07
9.44527e-07
9.45216e-07
9.44262e-07
9.428e-07
9.42803e-07
9.42801e-07
9.42803e-07
9.42802e-07
9.42803e-07
9.42801e-07
9.42803e-07
9.42801e-07
9.4453e-07
9.45217e-07
9.45014e-07
9.44102e-07
9.42801e-07
9.42802e-07
9.42801e-07
9.42802e-07
9.42801e-07
9.42802e-07
9.42801e-07
9.44319e-07
9.44528e-07
9.45189e-07
9.45037e-07
9.44397e-07
9.44079e-07
9.42801e-07
9.42803e-07
9.42802e-07
9.42803e-07
9.42801e-07
9.44286e-07
9.44448e-07
9.44573e-07
9.45029e-07
9.44394e-07
9.44104e-07
9.428e-07
9.42801e-07
9.428e-07
9.44319e-07
9.44448e-07
9.44548e-07
9.45171e-07
9.45032e-07
9.4448e-07
9.44536e-07
9.44527e-07
9.4453e-07
9.44528e-07
9.44573e-07
9.45171e-07
9.4505e-07
9.45199e-07
9.45216e-07
9.45217e-07
9.45189e-07
9.36161e-07
9.35433e-07
9.35371e-07
9.35419e-07
9.36171e-07
9.36193e-07
9.36177e-07
9.35535e-07
9.35108e-07
9.33957e-07
9.33958e-07
9.33957e-07
9.35259e-07
9.35554e-07
9.36186e-07
9.35536e-07
9.35072e-07
9.33958e-07
9.33959e-07
9.33958e-07
9.33959e-07
9.33958e-07
9.35236e-07
9.35551e-07
9.36189e-07
9.36161e-07
9.35108e-07
9.33958e-07
9.33959e-07
9.33958e-07
9.33958e-07
9.33958e-07
9.33959e-07
9.33958e-07
9.35261e-07
9.35637e-07
9.36207e-07
9.35433e-07
9.33957e-07
9.33959e-07
9.33958e-07
9.33959e-07
9.33958e-07
9.33959e-07
9.33958e-07
9.33959e-07
9.33957e-07
9.35693e-07
9.36356e-07
9.35371e-07
9.33958e-07
9.33958e-07
9.33958e-07
9.33958e-07
9.33959e-07
9.33958e-07
9.33958e-07
9.33958e-07
9.33958e-07
9.35684e-07
9.36373e-07
9.35419e-07
9.33957e-07
9.33959e-07
9.33958e-07
9.33959e-07
9.33958e-07
9.33959e-07
9.33958e-07
9.33959e-07
9.33957e-07
9.35686e-07
9.36373e-07
9.36171e-07
9.35259e-07
9.33958e-07
9.33959e-07
9.33958e-07
9.33958e-07
9.33958e-07
9.33959e-07
9.33958e-07
9.35476e-07
9.35685e-07
9.36346e-07
9.36193e-07
9.35554e-07
9.35236e-07
9.33958e-07
9.33959e-07
9.33958e-07
9.33959e-07
9.33958e-07
9.35443e-07
9.35605e-07
9.35729e-07
9.36186e-07
9.35551e-07
9.35261e-07
9.33957e-07
9.33958e-07
9.33957e-07
9.35476e-07
9.35605e-07
9.35705e-07
9.36328e-07
9.36189e-07
9.35637e-07
9.35693e-07
9.35684e-07
9.35686e-07
9.35685e-07
9.35729e-07
9.36328e-07
9.36207e-07
9.36356e-07
9.36373e-07
9.36373e-07
9.36346e-07
9.27317e-07
9.2659e-07
9.26527e-07
9.26575e-07
9.27328e-07
9.2735e-07
9.27333e-07
9.26692e-07
9.26265e-07
9.25114e-07
9.25115e-07
9.25114e-07
9.26416e-07
9.2671e-07
9.27342e-07
9.26692e-07
9.26228e-07
9.25114e-07
9.25116e-07
9.25115e-07
9.25116e-07
9.25114e-07
9.26393e-07
9.26708e-07
9.27346e-07
9.27317e-07
9.26265e-07
9.25115e-07
9.25115e-07
9.25115e-07
9.25115e-07
9.25115e-07
9.25115e-07
9.25114e-07
9.26418e-07
9.26794e-07
9.27364e-07
9.2659e-07
9.25114e-07
9.25116e-07
9.25115e-07
9.25116e-07
9.25115e-07
9.25116e-07
9.25115e-07
9.25116e-07
9.25114e-07
9.2685e-07
9.27513e-07
9.26527e-07
9.25115e-07
9.25115e-07
9.25115e-07
9.25115e-07
9.25115e-07
9.25115e-07
9.25115e-07
9.25115e-07
9.25115e-07
9.2684e-07
9.2753e-07
9.26575e-07
9.25114e-07
9.25116e-07
9.25115e-07
9.25116e-07
9.25115e-07
9.25116e-07
9.25115e-07
9.25116e-07
9.25114e-07
9.26843e-07
9.2753e-07
9.27328e-07
9.26416e-07
9.25115e-07
9.25115e-07
9.25115e-07
9.25115e-07
9.25115e-07
9.25115e-07
9.25115e-07
9.26633e-07
9.26842e-07
9.27503e-07
9.2735e-07
9.26711e-07
9.26393e-07
9.25115e-07
9.25116e-07
9.25115e-07
9.25116e-07
9.25114e-07
9.266e-07
9.26762e-07
9.26886e-07
9.27342e-07
9.26708e-07
9.26418e-07
9.25114e-07
9.25115e-07
9.25114e-07
9.26633e-07
9.26762e-07
9.26862e-07
9.27485e-07
9.27346e-07
9.26794e-07
9.2685e-07
9.26841e-07
9.26843e-07
9.26842e-07
9.26886e-07
9.27485e-07
9.27364e-07
9.27513e-07
9.2753e-07
9.2753e-07
9.27503e-07
9.18474e-07
9.17747e-07
9.17684e-07
9.17732e-07
9.18485e-07
9.18507e-07
9.1849e-07
9.17849e-07
9.17422e-07
9.16271e-07
9.16272e-07
9.16271e-07
9.17573e-07
9.17867e-07
9.18499e-07
9.17849e-07
9.17385e-07
9.16271e-07
9.16273e-07
9.16272e-07
9.16273e-07
9.16271e-07
9.1755e-07
9.17865e-07
9.18502e-07
9.18474e-07
9.17422e-07
9.16271e-07
9.16272e-07
9.16271e-07
9.16272e-07
9.16271e-07
9.16272e-07
9.16271e-07
9.17575e-07
9.17951e-07
9.18521e-07
9.17747e-07
9.16271e-07
9.16273e-07
9.16271e-07
9.16273e-07
9.16272e-07
9.16273e-07
9.16271e-07
9.16273e-07
9.16271e-07
9.18006e-07
9.1867e-07
9.17684e-07
9.16272e-07
9.16272e-07
9.16272e-07
9.16272e-07
9.16272e-07
9.16272e-07
9.16272e-07
9.16272e-07
9.16272e-07
9.17997e-07
9.18687e-07
9.17732e-07
9.16271e-07
9.16273e-07
9.16271e-07
9.16273e-07
9.16272e-07
9.16273e-07
9.16271e-07
9.16273e-07
9.16271e-07
9.18e-07
9.18687e-07
9.18485e-07
9.17573e-07
9.16271e-07
9.16272e-07
9.16271e-07
9.16272e-07
9.16271e-07
9.16272e-07
9.16271e-07
9.1779e-07
9.17999e-07
9.1866e-07
9.18507e-07
9.17867e-07
9.1755e-07
9.16271e-07
9.16273e-07
9.16272e-07
9.16273e-07
9.16271e-07
9.17757e-07
9.17919e-07
9.18043e-07
9.18499e-07
9.17865e-07
9.17575e-07
9.16271e-07
9.16272e-07
9.16271e-07
9.1779e-07
9.17919e-07
9.18019e-07
9.18641e-07
9.18502e-07
9.17951e-07
9.18006e-07
9.17997e-07
9.18e-07
9.17999e-07
9.18043e-07
9.18641e-07
9.18521e-07
9.1867e-07
9.18687e-07
9.18687e-07
9.1866e-07
9.09631e-07
9.08903e-07
9.08841e-07
9.08889e-07
9.09642e-07
9.09664e-07
9.09647e-07
9.09006e-07
9.08579e-07
9.07428e-07
9.07428e-07
9.07428e-07
9.0873e-07
9.09024e-07
9.09656e-07
9.09006e-07
9.08542e-07
9.07428e-07
9.0743e-07
9.07429e-07
9.0743e-07
9.07428e-07
9.08707e-07
9.09022e-07
9.09659e-07
9.09631e-07
9.08579e-07
9.07428e-07
9.07429e-07
9.07428e-07
9.07429e-07
9.07428e-07
9.07429e-07
9.07428e-07
9.08732e-07
9.09108e-07
9.09678e-07
9.08903e-07
9.07428e-07
9.0743e-07
9.07428e-07
9.0743e-07
9.07428e-07
9.0743e-07
9.07428e-07
9.0743e-07
9.07428e-07
9.09163e-07
9.09827e-07
9.08841e-07
9.07428e-07
9.07429e-07
9.07429e-07
9.07428e-07
9.07429e-07
9.07428e-07
9.07429e-07
9.07429e-07
9.07428e-07
9.09154e-07
9.09844e-07
9.08889e-07
9.07428e-07
9.0743e-07
9.07428e-07
9.0743e-07
9.07428e-07
9.0743e-07
9.07428e-07
9.0743e-07
9.07428e-07
9.09157e-07
9.09844e-07
9.09642e-07
9.0873e-07
9.07428e-07
9.07429e-07
9.07428e-07
9.07429e-07
9.07428e-07
9.07429e-07
9.07428e-07
9.08947e-07
9.09156e-07
9.09817e-07
9.09664e-07
9.09024e-07
9.08707e-07
9.07428e-07
9.0743e-07
9.07429e-07
9.0743e-07
9.07428e-07
9.08914e-07
9.09075e-07
9.092e-07
9.09656e-07
9.09022e-07
9.08732e-07
9.07428e-07
9.07428e-07
9.07428e-07
9.08947e-07
9.09075e-07
9.09176e-07
9.09798e-07
9.09659e-07
9.09108e-07
9.09163e-07
9.09154e-07
9.09157e-07
9.09156e-07
9.092e-07
9.09798e-07
9.09678e-07
9.09827e-07
9.09844e-07
9.09844e-07
9.09817e-07
9.00788e-07
9.0006e-07
8.99998e-07
9.00046e-07
9.00799e-07
9.00821e-07
9.00804e-07
9.00163e-07
8.99736e-07
8.98585e-07
8.98585e-07
8.98585e-07
8.99886e-07
9.00181e-07
9.00813e-07
9.00163e-07
8.99699e-07
8.98585e-07
8.98587e-07
8.98585e-07
8.98587e-07
8.98585e-07
8.99864e-07
9.00179e-07
9.00816e-07
9.00788e-07
8.99736e-07
8.98585e-07
8.98586e-07
8.98585e-07
8.98586e-07
8.98585e-07
8.98586e-07
8.98585e-07
8.99889e-07
9.00265e-07
9.00835e-07
9.0006e-07
8.98585e-07
8.98587e-07
8.98585e-07
8.98586e-07
8.98585e-07
8.98586e-07
8.98585e-07
8.98587e-07
8.98585e-07
9.0032e-07
9.00983e-07
8.99998e-07
8.98585e-07
8.98585e-07
8.98586e-07
8.98585e-07
8.98586e-07
8.98585e-07
8.98586e-07
8.98585e-07
8.98585e-07
9.00311e-07
9.01e-07
9.00046e-07
8.98585e-07
8.98587e-07
8.98585e-07
8.98586e-07
8.98585e-07
8.98586e-07
8.98585e-07
8.98587e-07
8.98585e-07
9.00314e-07
9.01001e-07
9.00799e-07
8.99886e-07
8.98585e-07
8.98586e-07
8.98585e-07
8.98586e-07
8.98585e-07
8.98586e-07
8.98585e-07
9.00104e-07
9.00313e-07
9.00974e-07
9.00821e-07
9.00181e-07
8.99864e-07
8.98585e-07
8.98587e-07
8.98585e-07
8.98587e-07
8.98585e-07
9.00071e-07
9.00232e-07
9.00357e-07
9.00813e-07
9.00179e-07
8.99889e-07
8.98585e-07
8.98585e-07
8.98585e-07
9.00104e-07
9.00232e-07
9.00332e-07
9.00955e-07
9.00816e-07
9.00265e-07
9.0032e-07
9.00311e-07
9.00314e-07
9.00313e-07
9.00357e-07
9.00955e-07
9.00835e-07
9.00983e-07
9.01e-07
9.01001e-07
9.00974e-07
8.91945e-07
8.91217e-07
8.91155e-07
8.91203e-07
8.91956e-07
8.91978e-07
8.91961e-07
8.9132e-07
8.90893e-07
8.89741e-07
8.89742e-07
8.89741e-07
8.91043e-07
8.91338e-07
8.9197e-07
8.9132e-07
8.90856e-07
8.89742e-07
8.89743e-07
8.89742e-07
8.89743e-07
8.89742e-07
8.9102e-07
8.91335e-07
8.91973e-07
8.91945e-07
8.90893e-07
8.89742e-07
8.89743e-07
8.89742e-07
8.89742e-07
8.89742e-07
8.89743e-07
8.89742e-07
8.91046e-07
8.91421e-07
8.91992e-07
8.91217e-07
8.89741e-07
8.89743e-07
8.89742e-07
8.89743e-07
8.89742e-07
8.89743e-07
8.89742e-07
8.89743e-07
8.89741e-07
8.91477e-07
8.9214e-07
8.91155e-07
8.89742e-07
8.89742e-07
8.89742e-07
8.89742e-07
8.89742e-07
8.89742e-07
8.89742e-07
8.89742e-07
8.89742e-07
8.91468e-07
8.92157e-07
8.91203e-07
8.89741e-07
8.89743e-07
8.89742e-07
8.89743e-07
8.89742e-07
8.89743e-07
8.89742e-07
8.89743e-07
8.89741e-07
8.91471e-07
8.92158e-07
8.91956e-07
8.91043e-07
8.89742e-07
8.89743e-07
8.89742e-07
8.89742e-07
8.89742e-07
8.89743e-07
8.89742e-07
8.91261e-07
8.9147e-07
8.9213e-07
8.91978e-07
8.91338e-07
8.9102e-07
8.89742e-07
8.89743e-07
8.89742e-07
8.89743e-07
8.89742e-07
8.91228e-07
8.91389e-07
8.91514e-07
8.9197e-07
8.91335e-07
8.91046e-07
8.89741e-07
8.89742e-07
8.89741e-07
8.91261e-07
8.91389e-07
8.91489e-07
8.92112e-07
8.91973e-07
8.91421e-07
8.91477e-07
8.91468e-07
8.91471e-07
8.9147e-07
8.91514e-07
8.92112e-07
8.91992e-07
8.9214e-07
8.92157e-07
8.92158e-07
8.9213e-07
8.83102e-07
8.82374e-07
8.82312e-07
8.8236e-07
8.83112e-07
8.83134e-07
8.83118e-07
8.82477e-07
8.82049e-07
8.80898e-07
8.80899e-07
8.80898e-07
8.822e-07
8.82495e-07
8.83127e-07
8.82477e-07
8.82013e-07
8.80899e-07
8.809e-07
8.80899e-07
8.809e-07
8.80899e-07
8.82177e-07
8.82492e-07
8.8313e-07
8.83102e-07
8.82049e-07
8.80899e-07
8.80899e-07
8.80899e-07
8.80899e-07
8.80899e-07
8.80899e-07
8.80899e-07
8.82203e-07
8.82578e-07
8.83148e-07
8.82374e-07
8.80898e-07
8.809e-07
8.80899e-07
8.809e-07
8.80899e-07
8.809e-07
8.80899e-07
8.809e-07
8.80898e-07
8.82634e-07
8.83297e-07
8.82312e-07
8.80899e-07
8.80899e-07
8.80899e-07
8.80899e-07
8.80899e-07
8.80899e-07
8.80899e-07
8.80899e-07
8.80899e-07
8.82625e-07
8.83314e-07
8.8236e-07
8.80898e-07
8.809e-07
8.80899e-07
8.809e-07
8.80899e-07
8.809e-07
8.80899e-07
8.809e-07
8.80898e-07
8.82627e-07
8.83314e-07
8.83112e-07
8.822e-07
8.80899e-07
8.80899e-07
8.80899e-07
8.80899e-07
8.80899e-07
8.80899e-07
8.80899e-07
8.82417e-07
8.82626e-07
8.83287e-07
8.83134e-07
8.82495e-07
8.82177e-07
8.80899e-07
8.809e-07
8.80899e-07
8.809e-07
8.80899e-07
8.82384e-07
8.82546e-07
8.8267e-07
8.83127e-07
8.82492e-07
8.82202e-07
8.80898e-07
8.80899e-07
8.80898e-07
8.82417e-07
8.82546e-07
8.82646e-07
8.83269e-07
8.8313e-07
8.82578e-07
8.82634e-07
8.82625e-07
8.82627e-07
8.82626e-07
8.8267e-07
8.83269e-07
8.83148e-07
8.83297e-07
8.83314e-07
8.83314e-07
8.83287e-07
8.74259e-07
8.73531e-07
8.73468e-07
8.73517e-07
8.74269e-07
8.74291e-07
8.74274e-07
8.73633e-07
8.73206e-07
8.72055e-07
8.72056e-07
8.72055e-07
8.73357e-07
8.73652e-07
8.74283e-07
8.73633e-07
8.7317e-07
8.72056e-07
8.72057e-07
8.72056e-07
8.72057e-07
8.72056e-07
8.73334e-07
8.73649e-07
8.74287e-07
8.74258e-07
8.73206e-07
8.72056e-07
8.72056e-07
8.72056e-07
8.72056e-07
8.72056e-07
8.72056e-07
8.72056e-07
8.73359e-07
8.73735e-07
8.74305e-07
8.73531e-07
8.72055e-07
8.72057e-07
8.72056e-07
8.72057e-07
8.72056e-07
8.72057e-07
8.72056e-07
8.72057e-07
8.72055e-07
8.73791e-07
8.74454e-07
8.73468e-07
8.72056e-07
8.72056e-07
8.72056e-07
8.72056e-07
8.72056e-07
8.72056e-07
8.72056e-07
8.72056e-07
8.72056e-07
8.73782e-07
8.74471e-07
8.73516e-07
8.72055e-07
8.72057e-07
8.72056e-07
8.72057e-07
8.72056e-07
8.72057e-07