/*--------------------------------*- C++ -*----------------------------------*\
| =========                 |                                                 |
| \\      /  F ield         | OpenFOAM: The Open Source CFD Toolbox           |
|  \\    /   O peration     | Version:  v2012                                 |
|   \\  /    A nd           | Website:  www.openfoam.com                      |
|    \\/     M anipulation  |                                                 |
\*---------------------------------------------------------------------------*/
FoamFile
{
    version     2.0;
    format      ascii;
    class       volScalarField;
    location    "56";
    object      p;
}
// * * * * * * * * * * * * * * * * * * * * * * * * * * * * * * * * * * * * * //

dimensions      [0 2 -2 0 0 0 0];


internalField   nonuniform List<scalar> 
292667
(
1.14901e-06
1.13977e-06
1.13904e-06
1.13911e-06
1.1401e-06
1.1499e-06
1.13998e-06
1.13746e-06
1.13598e-06
1.13537e-06
1.13545e-06
1.13624e-06
1.13794e-06
1.14069e-06
1.13998e-06
1.13673e-06
1.13468e-06
1.13356e-06
1.13308e-06
1.13315e-06
1.13376e-06
1.13507e-06
1.13737e-06
1.1409e-06
1.14901e-06
1.13746e-06
1.13468e-06
1.13303e-06
1.13211e-06
1.13171e-06
1.13176e-06
1.13228e-06
1.13335e-06
1.13523e-06
1.13833e-06
1.14859e-06
1.13977e-06
1.13598e-06
1.13356e-06
1.13211e-06
1.13128e-06
1.13092e-06
1.13097e-06
1.13144e-06
1.13239e-06
1.13405e-06
1.13679e-06
1.14329e-06
1.13904e-06
1.13537e-06
1.13308e-06
1.13171e-06
1.13092e-06
1.13058e-06
1.13063e-06
1.13107e-06
1.13199e-06
1.13355e-06
1.13615e-06
1.1417e-06
1.13911e-06
1.13545e-06
1.13315e-06
1.13176e-06
1.13097e-06
1.13063e-06
1.13068e-06
1.13112e-06
1.13204e-06
1.13362e-06
1.13624e-06
1.14201e-06
1.1401e-06
1.13624e-06
1.13376e-06
1.13228e-06
1.13144e-06
1.13107e-06
1.13112e-06
1.1316e-06
1.13258e-06
1.13427e-06
1.13709e-06
1.1436e-06
1.1499e-06
1.13794e-06
1.13507e-06
1.13335e-06
1.13239e-06
1.13199e-06
1.13204e-06
1.13258e-06
1.1337e-06
1.13566e-06
1.13887e-06
1.14847e-06
1.14069e-06
1.13737e-06
1.13523e-06
1.13405e-06
1.13355e-06
1.13362e-06
1.13427e-06
1.13566e-06
1.13809e-06
1.14425e-06
1.1409e-06
1.13833e-06
1.13679e-06
1.13615e-06
1.13624e-06
1.13709e-06
1.13887e-06
1.14425e-06
1.14859e-06
1.14329e-06
1.1417e-06
1.14201e-06
1.1436e-06
1.14847e-06
1.1234e-06
1.12262e-06
1.12259e-06
1.12263e-06
1.1234e-06
1.12328e-06
1.12345e-06
1.12284e-06
1.12247e-06
1.12116e-06
1.12114e-06
1.12116e-06
1.12263e-06
1.12288e-06
1.12348e-06
1.12284e-06
1.12246e-06
1.1212e-06
1.12115e-06
1.1212e-06
1.12115e-06
1.1212e-06
1.12261e-06
1.12286e-06
1.12345e-06
1.12339e-06
1.12247e-06
1.1212e-06
1.12114e-06
1.12117e-06
1.12116e-06
1.12117e-06
1.12114e-06
1.12121e-06
1.1226e-06
1.12289e-06
1.12348e-06
1.12262e-06
1.12116e-06
1.12115e-06
1.12118e-06
1.12114e-06
1.12114e-06
1.12114e-06
1.12118e-06
1.12115e-06
1.12116e-06
1.12303e-06
1.12364e-06
1.12259e-06
1.12114e-06
1.1212e-06
1.12116e-06
1.12114e-06
1.12113e-06
1.12114e-06
1.12116e-06
1.1212e-06
1.12114e-06
1.12305e-06
1.12356e-06
1.12263e-06
1.12116e-06
1.12115e-06
1.12117e-06
1.12114e-06
1.12114e-06
1.12114e-06
1.12117e-06
1.12115e-06
1.12116e-06
1.12305e-06
1.12359e-06
1.1234e-06
1.12263e-06
1.1212e-06
1.12114e-06
1.12118e-06
1.12116e-06
1.12117e-06
1.12114e-06
1.1212e-06
1.12279e-06
1.12294e-06
1.1236e-06
1.12328e-06
1.12288e-06
1.12261e-06
1.12121e-06
1.12115e-06
1.1212e-06
1.12115e-06
1.1212e-06
1.12276e-06
1.12291e-06
1.12292e-06
1.12348e-06
1.12286e-06
1.1226e-06
1.12116e-06
1.12114e-06
1.12116e-06
1.12279e-06
1.12291e-06
1.12297e-06
1.12358e-06
1.12345e-06
1.12289e-06
1.12303e-06
1.12305e-06
1.12305e-06
1.12294e-06
1.12292e-06
1.12358e-06
1.12348e-06
1.12364e-06
1.12356e-06
1.12359e-06
1.1236e-06
1.11385e-06
1.11304e-06
1.11298e-06
1.11302e-06
1.11384e-06
1.11388e-06
1.11387e-06
1.11316e-06
1.11274e-06
1.11146e-06
1.11146e-06
1.11146e-06
1.11289e-06
1.11319e-06
1.11386e-06
1.11316e-06
1.11272e-06
1.11151e-06
1.11151e-06
1.11155e-06
1.11151e-06
1.11151e-06
1.11289e-06
1.11319e-06
1.11386e-06
1.11385e-06
1.11274e-06
1.11151e-06
1.11153e-06
1.11158e-06
1.11157e-06
1.11158e-06
1.11153e-06
1.11151e-06
1.1129e-06
1.11325e-06
1.1139e-06
1.11304e-06
1.11146e-06
1.11151e-06
1.11158e-06
1.11158e-06
1.1116e-06
1.11158e-06
1.11158e-06
1.11151e-06
1.11146e-06
1.1133e-06
1.11403e-06
1.11298e-06
1.11146e-06
1.11155e-06
1.11157e-06
1.1116e-06
1.11161e-06
1.1116e-06
1.11157e-06
1.11155e-06
1.11146e-06
1.1133e-06
1.11405e-06
1.11302e-06
1.11146e-06
1.11151e-06
1.11158e-06
1.11158e-06
1.1116e-06
1.11158e-06
1.11158e-06
1.11151e-06
1.11146e-06
1.1133e-06
1.11405e-06
1.11384e-06
1.11289e-06
1.11151e-06
1.11153e-06
1.11158e-06
1.11157e-06
1.11158e-06
1.11153e-06
1.11151e-06
1.1131e-06
1.11329e-06
1.11403e-06
1.11388e-06
1.11319e-06
1.11289e-06
1.11151e-06
1.11151e-06
1.11155e-06
1.11151e-06
1.11151e-06
1.11308e-06
1.11323e-06
1.11332e-06
1.11386e-06
1.11319e-06
1.1129e-06
1.11146e-06
1.11146e-06
1.11146e-06
1.1131e-06
1.11323e-06
1.11331e-06
1.11401e-06
1.11386e-06
1.11325e-06
1.1133e-06
1.1133e-06
1.1133e-06
1.11329e-06
1.11332e-06
1.11401e-06
1.1139e-06
1.11403e-06
1.11405e-06
1.11405e-06
1.11403e-06
1.10432e-06
1.1035e-06
1.10344e-06
1.10349e-06
1.10432e-06
1.10436e-06
1.10435e-06
1.10362e-06
1.10318e-06
1.10189e-06
1.10189e-06
1.10189e-06
1.10333e-06
1.10364e-06
1.10434e-06
1.10362e-06
1.10315e-06
1.10191e-06
1.10192e-06
1.10194e-06
1.10192e-06
1.10191e-06
1.10331e-06
1.10364e-06
1.10434e-06
1.10432e-06
1.10318e-06
1.10191e-06
1.10194e-06
1.10197e-06
1.10197e-06
1.10197e-06
1.10194e-06
1.10191e-06
1.10333e-06
1.10371e-06
1.10438e-06
1.1035e-06
1.10189e-06
1.10192e-06
1.10197e-06
1.10198e-06
1.102e-06
1.10198e-06
1.10197e-06
1.10192e-06
1.10189e-06
1.10376e-06
1.10451e-06
1.10344e-06
1.10189e-06
1.10194e-06
1.10197e-06
1.102e-06
1.102e-06
1.102e-06
1.10197e-06
1.10194e-06
1.10189e-06
1.10375e-06
1.10452e-06
1.10349e-06
1.10189e-06
1.10192e-06
1.10197e-06
1.10198e-06
1.102e-06
1.10198e-06
1.10197e-06
1.10192e-06
1.10189e-06
1.10375e-06
1.10452e-06
1.10432e-06
1.10333e-06
1.10191e-06
1.10194e-06
1.10197e-06
1.10197e-06
1.10197e-06
1.10194e-06
1.10191e-06
1.10354e-06
1.10375e-06
1.10451e-06
1.10436e-06
1.10364e-06
1.10331e-06
1.10191e-06
1.10192e-06
1.10194e-06
1.10192e-06
1.10191e-06
1.10351e-06
1.10368e-06
1.1038e-06
1.10434e-06
1.10364e-06
1.10333e-06
1.10189e-06
1.10189e-06
1.10189e-06
1.10354e-06
1.10368e-06
1.10378e-06
1.10449e-06
1.10434e-06
1.10371e-06
1.10376e-06
1.10375e-06
1.10375e-06
1.10375e-06
1.1038e-06
1.10449e-06
1.10438e-06
1.10451e-06
1.10452e-06
1.10452e-06
1.10451e-06
1.0948e-06
1.09398e-06
1.09391e-06
1.09396e-06
1.09479e-06
1.09483e-06
1.09482e-06
1.09409e-06
1.09364e-06
1.09234e-06
1.09234e-06
1.09234e-06
1.09379e-06
1.0941e-06
1.09481e-06
1.09409e-06
1.09361e-06
1.09235e-06
1.09236e-06
1.09237e-06
1.09236e-06
1.09235e-06
1.09377e-06
1.0941e-06
1.09482e-06
1.0948e-06
1.09364e-06
1.09235e-06
1.09237e-06
1.09239e-06
1.09239e-06
1.09239e-06
1.09237e-06
1.09235e-06
1.09379e-06
1.09418e-06
1.09485e-06
1.09398e-06
1.09234e-06
1.09236e-06
1.09239e-06
1.0924e-06
1.09241e-06
1.0924e-06
1.09239e-06
1.09236e-06
1.09234e-06
1.09423e-06
1.09499e-06
1.09391e-06
1.09234e-06
1.09237e-06
1.09239e-06
1.09241e-06
1.09241e-06
1.09241e-06
1.09239e-06
1.09237e-06
1.09234e-06
1.09421e-06
1.095e-06
1.09396e-06
1.09234e-06
1.09236e-06
1.09239e-06
1.0924e-06
1.09241e-06
1.0924e-06
1.09239e-06
1.09236e-06
1.09234e-06
1.09422e-06
1.095e-06
1.09479e-06
1.09379e-06
1.09235e-06
1.09237e-06
1.09239e-06
1.09239e-06
1.09239e-06
1.09237e-06
1.09235e-06
1.094e-06
1.09423e-06
1.09498e-06
1.09483e-06
1.0941e-06
1.09377e-06
1.09235e-06
1.09236e-06
1.09237e-06
1.09236e-06
1.09235e-06
1.09397e-06
1.09415e-06
1.09428e-06
1.09481e-06
1.0941e-06
1.09379e-06
1.09234e-06
1.09234e-06
1.09234e-06
1.094e-06
1.09415e-06
1.09425e-06
1.09497e-06
1.09482e-06
1.09418e-06
1.09423e-06
1.09421e-06
1.09422e-06
1.09423e-06
1.09428e-06
1.09497e-06
1.09485e-06
1.09499e-06
1.095e-06
1.095e-06
1.09498e-06
1.08527e-06
1.08445e-06
1.08438e-06
1.08443e-06
1.08526e-06
1.0853e-06
1.0853e-06
1.08456e-06
1.08411e-06
1.0828e-06
1.0828e-06
1.0828e-06
1.08425e-06
1.08457e-06
1.08529e-06
1.08456e-06
1.08407e-06
1.08281e-06
1.08282e-06
1.08282e-06
1.08282e-06
1.08281e-06
1.08423e-06
1.08457e-06
1.08529e-06
1.08527e-06
1.08411e-06
1.08281e-06
1.08282e-06
1.08283e-06
1.08283e-06
1.08283e-06
1.08282e-06
1.08281e-06
1.08426e-06
1.08466e-06
1.08532e-06
1.08445e-06
1.0828e-06
1.08282e-06
1.08283e-06
1.08284e-06
1.08284e-06
1.08284e-06
1.08283e-06
1.08282e-06
1.0828e-06
1.0847e-06
1.08546e-06
1.08438e-06
1.0828e-06
1.08282e-06
1.08283e-06
1.08284e-06
1.08285e-06
1.08284e-06
1.08283e-06
1.08282e-06
1.0828e-06
1.08468e-06
1.08547e-06
1.08443e-06
1.0828e-06
1.08282e-06
1.08283e-06
1.08284e-06
1.08284e-06
1.08284e-06
1.08283e-06
1.08282e-06
1.0828e-06
1.08469e-06
1.08547e-06
1.08526e-06
1.08425e-06
1.08281e-06
1.08282e-06
1.08283e-06
1.08283e-06
1.08283e-06
1.08282e-06
1.08281e-06
1.08446e-06
1.0847e-06
1.08546e-06
1.0853e-06
1.08457e-06
1.08423e-06
1.08281e-06
1.08282e-06
1.08282e-06
1.08282e-06
1.08281e-06
1.08443e-06
1.08462e-06
1.08475e-06
1.08529e-06
1.08457e-06
1.08426e-06
1.0828e-06
1.0828e-06
1.0828e-06
1.08446e-06
1.08462e-06
1.08473e-06
1.08544e-06
1.08529e-06
1.08466e-06
1.0847e-06
1.08468e-06
1.08469e-06
1.0847e-06
1.08475e-06
1.08544e-06
1.08532e-06
1.08546e-06
1.08547e-06
1.08547e-06
1.08546e-06
1.07574e-06
1.07492e-06
1.07485e-06
1.0749e-06
1.07574e-06
1.07578e-06
1.07577e-06
1.07504e-06
1.07458e-06
1.07327e-06
1.07327e-06
1.07327e-06
1.07472e-06
1.07505e-06
1.07576e-06
1.07504e-06
1.07454e-06
1.07327e-06
1.07328e-06
1.07328e-06
1.07328e-06
1.07327e-06
1.0747e-06
1.07504e-06
1.07576e-06
1.07574e-06
1.07458e-06
1.07327e-06
1.07328e-06
1.07329e-06
1.07329e-06
1.07329e-06
1.07328e-06
1.07327e-06
1.07473e-06
1.07513e-06
1.0758e-06
1.07492e-06
1.07327e-06
1.07328e-06
1.07329e-06
1.07329e-06
1.07329e-06
1.07329e-06
1.07329e-06
1.07328e-06
1.07327e-06
1.07517e-06
1.07593e-06
1.07485e-06
1.07327e-06
1.07328e-06
1.07329e-06
1.07329e-06
1.0733e-06
1.07329e-06
1.07329e-06
1.07328e-06
1.07327e-06
1.07515e-06
1.07594e-06
1.0749e-06
1.07327e-06
1.07328e-06
1.07329e-06
1.07329e-06
1.07329e-06
1.07329e-06
1.07329e-06
1.07328e-06
1.07327e-06
1.07516e-06
1.07594e-06
1.07574e-06
1.07472e-06
1.07327e-06
1.07328e-06
1.07329e-06
1.07329e-06
1.07329e-06
1.07328e-06
1.07327e-06
1.07493e-06
1.07517e-06
1.07593e-06
1.07578e-06
1.07505e-06
1.0747e-06
1.07327e-06
1.07328e-06
1.07328e-06
1.07328e-06
1.07327e-06
1.0749e-06
1.07509e-06
1.07522e-06
1.07576e-06
1.07504e-06
1.07473e-06
1.07327e-06
1.07327e-06
1.07327e-06
1.07493e-06
1.07509e-06
1.0752e-06
1.07591e-06
1.07576e-06
1.07513e-06
1.07517e-06
1.07515e-06
1.07516e-06
1.07517e-06
1.07522e-06
1.07591e-06
1.0758e-06
1.07593e-06
1.07594e-06
1.07594e-06
1.07593e-06
1.06622e-06
1.06539e-06
1.06532e-06
1.06537e-06
1.06621e-06
1.06625e-06
1.06624e-06
1.06551e-06
1.06505e-06
1.06374e-06
1.06374e-06
1.06374e-06
1.06519e-06
1.06552e-06
1.06623e-06
1.06551e-06
1.06501e-06
1.06374e-06
1.06374e-06
1.06374e-06
1.06374e-06
1.06374e-06
1.06517e-06
1.06551e-06
1.06623e-06
1.06622e-06
1.06505e-06
1.06374e-06
1.06374e-06
1.06375e-06
1.06375e-06
1.06375e-06
1.06374e-06
1.06374e-06
1.0652e-06
1.0656e-06
1.06627e-06
1.06539e-06
1.06374e-06
1.06374e-06
1.06375e-06
1.06375e-06
1.06375e-06
1.06375e-06
1.06375e-06
1.06374e-06
1.06374e-06
1.06564e-06
1.0664e-06
1.06532e-06
1.06374e-06
1.06374e-06
1.06375e-06
1.06375e-06
1.06375e-06
1.06375e-06
1.06375e-06
1.06374e-06
1.06374e-06
1.06562e-06
1.06641e-06
1.06537e-06
1.06374e-06
1.06374e-06
1.06375e-06
1.06375e-06
1.06375e-06
1.06375e-06
1.06375e-06
1.06374e-06
1.06374e-06
1.06563e-06
1.06641e-06
1.06621e-06
1.06519e-06
1.06374e-06
1.06374e-06
1.06375e-06
1.06375e-06
1.06375e-06
1.06374e-06
1.06374e-06
1.0654e-06
1.06564e-06
1.0664e-06
1.06625e-06
1.06552e-06
1.06517e-06
1.06374e-06
1.06374e-06
1.06374e-06
1.06374e-06
1.06374e-06
1.06537e-06
1.06556e-06
1.06569e-06
1.06623e-06
1.06551e-06
1.0652e-06
1.06374e-06
1.06374e-06
1.06374e-06
1.0654e-06
1.06556e-06
1.06567e-06
1.06638e-06
1.06623e-06
1.0656e-06
1.06564e-06
1.06562e-06
1.06563e-06
1.06564e-06
1.06569e-06
1.06638e-06
1.06627e-06
1.0664e-06
1.06641e-06
1.06641e-06
1.0664e-06
1.05669e-06
1.05586e-06
1.05579e-06
1.05584e-06
1.05668e-06
1.05672e-06
1.05671e-06
1.05598e-06
1.05552e-06
1.05421e-06
1.05421e-06
1.05421e-06
1.05567e-06
1.05599e-06
1.0567e-06
1.05598e-06
1.05548e-06
1.05421e-06
1.05421e-06
1.05421e-06
1.05421e-06
1.05421e-06
1.05564e-06
1.05598e-06
1.0567e-06
1.05669e-06
1.05552e-06
1.05421e-06
1.05421e-06
1.05421e-06
1.05421e-06
1.05421e-06
1.05421e-06
1.05421e-06
1.05567e-06
1.05607e-06
1.05674e-06
1.05586e-06
1.05421e-06
1.05421e-06
1.05421e-06
1.05422e-06
1.05422e-06
1.05422e-06
1.05421e-06
1.05421e-06
1.05421e-06
1.05611e-06
1.05687e-06
1.05579e-06
1.05421e-06
1.05421e-06
1.05421e-06
1.05422e-06
1.05422e-06
1.05422e-06
1.05421e-06
1.05421e-06
1.05421e-06
1.05609e-06
1.05688e-06
1.05584e-06
1.05421e-06
1.05421e-06
1.05421e-06
1.05422e-06
1.05422e-06
1.05422e-06
1.05421e-06
1.05421e-06
1.05421e-06
1.0561e-06
1.05688e-06
1.05668e-06
1.05567e-06
1.05421e-06
1.05421e-06
1.05421e-06
1.05421e-06
1.05421e-06
1.05421e-06
1.05421e-06
1.05588e-06
1.05611e-06
1.05687e-06
1.05672e-06
1.05599e-06
1.05564e-06
1.05421e-06
1.05421e-06
1.05421e-06
1.05421e-06
1.05421e-06
1.05584e-06
1.05603e-06
1.05616e-06
1.0567e-06
1.05598e-06
1.05567e-06
1.05421e-06
1.05421e-06
1.05421e-06
1.05588e-06
1.05603e-06
1.05614e-06
1.05685e-06
1.0567e-06
1.05607e-06
1.05611e-06
1.05609e-06
1.0561e-06
1.05611e-06
1.05616e-06
1.05685e-06
1.05674e-06
1.05687e-06
1.05688e-06
1.05688e-06
1.05687e-06
1.04716e-06
1.04633e-06
1.04626e-06
1.04631e-06
1.04715e-06
1.04719e-06
1.04718e-06
1.04645e-06
1.04599e-06
1.04468e-06
1.04468e-06
1.04468e-06
1.04614e-06
1.04646e-06
1.04717e-06
1.04645e-06
1.04595e-06
1.04468e-06
1.04468e-06
1.04468e-06
1.04468e-06
1.04468e-06
1.04611e-06
1.04646e-06
1.04717e-06
1.04716e-06
1.04599e-06
1.04468e-06
1.04468e-06
1.04468e-06
1.04468e-06
1.04468e-06
1.04468e-06
1.04468e-06
1.04614e-06
1.04654e-06
1.04721e-06
1.04633e-06
1.04468e-06
1.04468e-06
1.04468e-06
1.04468e-06
1.04468e-06
1.04468e-06
1.04468e-06
1.04468e-06
1.04468e-06
1.04658e-06
1.04734e-06
1.04626e-06
1.04468e-06
1.04468e-06
1.04468e-06
1.04468e-06
1.04468e-06
1.04468e-06
1.04468e-06
1.04468e-06
1.04468e-06
1.04657e-06
1.04735e-06
1.04631e-06
1.04468e-06
1.04468e-06
1.04468e-06
1.04468e-06
1.04468e-06
1.04468e-06
1.04468e-06
1.04468e-06
1.04468e-06
1.04657e-06
1.04735e-06
1.04715e-06
1.04614e-06
1.04468e-06
1.04468e-06
1.04468e-06
1.04468e-06
1.04468e-06
1.04468e-06
1.04468e-06
1.04635e-06
1.04658e-06
1.04734e-06
1.04719e-06
1.04646e-06
1.04611e-06
1.04468e-06
1.04468e-06
1.04468e-06
1.04468e-06
1.04468e-06
1.04631e-06
1.0465e-06
1.04664e-06
1.04717e-06
1.04646e-06
1.04614e-06
1.04468e-06
1.04468e-06
1.04468e-06
1.04635e-06
1.0465e-06
1.04661e-06
1.04732e-06
1.04717e-06
1.04654e-06
1.04658e-06
1.04657e-06
1.04657e-06
1.04658e-06
1.04664e-06
1.04732e-06
1.04721e-06
1.04734e-06
1.04735e-06
1.04735e-06
1.04734e-06
1.03763e-06
1.0368e-06
1.03673e-06
1.03678e-06
1.03762e-06
1.03766e-06
1.03765e-06
1.03692e-06
1.03646e-06
1.03515e-06
1.03515e-06
1.03515e-06
1.03661e-06
1.03693e-06
1.03764e-06
1.03692e-06
1.03642e-06
1.03515e-06
1.03515e-06
1.03515e-06
1.03515e-06
1.03515e-06
1.03658e-06
1.03693e-06
1.03765e-06
1.03763e-06
1.03646e-06
1.03515e-06
1.03515e-06
1.03515e-06
1.03515e-06
1.03515e-06
1.03515e-06
1.03515e-06
1.03661e-06
1.03701e-06
1.03768e-06
1.0368e-06
1.03515e-06
1.03515e-06
1.03515e-06
1.03515e-06
1.03515e-06
1.03515e-06
1.03515e-06
1.03515e-06
1.03515e-06
1.03705e-06
1.03781e-06
1.03673e-06
1.03515e-06
1.03515e-06
1.03515e-06
1.03515e-06
1.03515e-06
1.03515e-06
1.03515e-06
1.03515e-06
1.03515e-06
1.03704e-06
1.03782e-06
1.03678e-06
1.03515e-06
1.03515e-06
1.03515e-06
1.03515e-06
1.03515e-06
1.03515e-06
1.03515e-06
1.03515e-06
1.03515e-06
1.03704e-06
1.03782e-06
1.03762e-06
1.03661e-06
1.03515e-06
1.03515e-06
1.03515e-06
1.03515e-06
1.03515e-06
1.03515e-06
1.03515e-06
1.03682e-06
1.03705e-06
1.03781e-06
1.03766e-06
1.03693e-06
1.03658e-06
1.03515e-06
1.03515e-06
1.03515e-06
1.03515e-06
1.03515e-06
1.03678e-06
1.03697e-06
1.03711e-06
1.03764e-06
1.03693e-06
1.03661e-06
1.03515e-06
1.03515e-06
1.03515e-06
1.03682e-06
1.03697e-06
1.03708e-06
1.0378e-06
1.03765e-06
1.03701e-06
1.03705e-06
1.03704e-06
1.03704e-06
1.03705e-06
1.03711e-06
1.0378e-06
1.03768e-06
1.03781e-06
1.03782e-06
1.03782e-06
1.03781e-06
1.0281e-06
1.02727e-06
1.02721e-06
1.02725e-06
1.02809e-06
1.02813e-06
1.02812e-06
1.02739e-06
1.02693e-06
1.02562e-06
1.02562e-06
1.02562e-06
1.02708e-06
1.0274e-06
1.02811e-06
1.02739e-06
1.02689e-06
1.02562e-06
1.02562e-06
1.02562e-06
1.02562e-06
1.02562e-06
1.02705e-06
1.0274e-06
1.02812e-06
1.0281e-06
1.02693e-06
1.02562e-06
1.02562e-06
1.02562e-06
1.02562e-06
1.02562e-06
1.02562e-06
1.02562e-06
1.02708e-06
1.02748e-06
1.02815e-06
1.02727e-06
1.02562e-06
1.02562e-06
1.02562e-06
1.02562e-06
1.02562e-06
1.02562e-06
1.02562e-06
1.02562e-06
1.02562e-06
1.02752e-06
1.02829e-06
1.02721e-06
1.02562e-06
1.02562e-06
1.02562e-06
1.02562e-06
1.02562e-06
1.02562e-06
1.02562e-06
1.02562e-06
1.02562e-06
1.02751e-06
1.02829e-06
1.02725e-06
1.02562e-06
1.02562e-06
1.02562e-06
1.02562e-06
1.02562e-06
1.02562e-06
1.02562e-06
1.02562e-06
1.02562e-06
1.02751e-06
1.0283e-06
1.02809e-06
1.02708e-06
1.02562e-06
1.02562e-06
1.02562e-06
1.02562e-06
1.02562e-06
1.02562e-06
1.02562e-06
1.02729e-06
1.02752e-06
1.02828e-06
1.02813e-06
1.0274e-06
1.02705e-06
1.02562e-06
1.02562e-06
1.02562e-06
1.02562e-06
1.02562e-06
1.02725e-06
1.02744e-06
1.02758e-06
1.02811e-06
1.0274e-06
1.02708e-06
1.02562e-06
1.02562e-06
1.02562e-06
1.02729e-06
1.02744e-06
1.02755e-06
1.02827e-06
1.02812e-06
1.02748e-06
1.02752e-06
1.02751e-06
1.02751e-06
1.02752e-06
1.02758e-06
1.02827e-06
1.02815e-06
1.02829e-06
1.02829e-06
1.0283e-06
1.02828e-06
1.01857e-06
1.01774e-06
1.01768e-06
1.01772e-06
1.01856e-06
1.0186e-06
1.0186e-06
1.01786e-06
1.0174e-06
1.01609e-06
1.01609e-06
1.01609e-06
1.01755e-06
1.01787e-06
1.01858e-06
1.01786e-06
1.01736e-06
1.01609e-06
1.01609e-06
1.01609e-06
1.01609e-06
1.01609e-06
1.01752e-06
1.01787e-06
1.01859e-06
1.01857e-06
1.0174e-06
1.01609e-06
1.01609e-06
1.01609e-06
1.01609e-06
1.01609e-06
1.01609e-06
1.01609e-06
1.01755e-06
1.01795e-06
1.01862e-06
1.01774e-06
1.01609e-06
1.01609e-06
1.01609e-06
1.01609e-06
1.01609e-06
1.01609e-06
1.01609e-06
1.01609e-06
1.01609e-06
1.01799e-06
1.01876e-06
1.01768e-06
1.01609e-06
1.01609e-06
1.01609e-06
1.01609e-06
1.01609e-06
1.01609e-06
1.01609e-06
1.01609e-06
1.01609e-06
1.01798e-06
1.01877e-06
1.01772e-06
1.01609e-06
1.01609e-06
1.01609e-06
1.01609e-06
1.01609e-06
1.01609e-06
1.01609e-06
1.01609e-06
1.01609e-06
1.01798e-06
1.01877e-06
1.01856e-06
1.01755e-06
1.01609e-06
1.01609e-06
1.01609e-06
1.01609e-06
1.01609e-06
1.01609e-06
1.01609e-06
1.01776e-06
1.01799e-06
1.01875e-06
1.0186e-06
1.01787e-06
1.01752e-06
1.01609e-06
1.01609e-06
1.01609e-06
1.01609e-06
1.01609e-06
1.01772e-06
1.01791e-06
1.01805e-06
1.01858e-06
1.01787e-06
1.01755e-06
1.01609e-06
1.01609e-06
1.01609e-06
1.01776e-06
1.01791e-06
1.01802e-06
1.01874e-06
1.01859e-06
1.01795e-06
1.01799e-06
1.01798e-06
1.01798e-06
1.01799e-06
1.01805e-06
1.01874e-06
1.01862e-06
1.01876e-06
1.01877e-06
1.01877e-06
1.01875e-06
1.00904e-06
1.00821e-06
1.00815e-06
1.0082e-06
1.00903e-06
1.00907e-06
1.00907e-06
1.00833e-06
1.00787e-06
1.00656e-06
1.00656e-06
1.00656e-06
1.00802e-06
1.00834e-06
1.00905e-06
1.00833e-06
1.00783e-06
1.00656e-06
1.00656e-06
1.00656e-06
1.00656e-06
1.00656e-06
1.008e-06
1.00834e-06
1.00906e-06
1.00904e-06
1.00787e-06
1.00656e-06
1.00656e-06
1.00656e-06
1.00656e-06
1.00656e-06
1.00656e-06
1.00656e-06
1.00802e-06
1.00842e-06
1.00909e-06
1.00821e-06
1.00656e-06
1.00656e-06
1.00656e-06
1.00656e-06
1.00656e-06
1.00656e-06
1.00656e-06
1.00656e-06
1.00656e-06
1.00846e-06
1.00923e-06
1.00815e-06
1.00656e-06
1.00656e-06
1.00656e-06
1.00656e-06
1.00656e-06
1.00656e-06
1.00656e-06
1.00656e-06
1.00656e-06
1.00845e-06
1.00924e-06
1.0082e-06
1.00656e-06
1.00656e-06
1.00656e-06
1.00656e-06
1.00656e-06
1.00656e-06
1.00656e-06
1.00656e-06
1.00656e-06
1.00845e-06
1.00924e-06
1.00903e-06
1.00802e-06
1.00656e-06
1.00656e-06
1.00656e-06
1.00656e-06
1.00656e-06
1.00656e-06
1.00656e-06
1.00823e-06
1.00846e-06
1.00922e-06
1.00907e-06
1.00834e-06
1.008e-06
1.00656e-06
1.00656e-06
1.00656e-06
1.00656e-06
1.00656e-06
1.00819e-06
1.00838e-06
1.00852e-06
1.00905e-06
1.00834e-06
1.00802e-06
1.00656e-06
1.00656e-06
1.00656e-06
1.00823e-06
1.00838e-06
1.00849e-06
1.00921e-06
1.00906e-06
1.00842e-06
1.00846e-06
1.00845e-06
1.00845e-06
1.00846e-06
1.00852e-06
1.00921e-06
1.00909e-06
1.00923e-06
1.00924e-06
1.00924e-06
1.00922e-06
9.99512e-07
9.98684e-07
9.98618e-07
9.98666e-07
9.99503e-07
9.99542e-07
9.99537e-07
9.98802e-07
9.98341e-07
9.97033e-07
9.97033e-07
9.97033e-07
9.98489e-07
9.98812e-07
9.99525e-07
9.98802e-07
9.98306e-07
9.97033e-07
9.97034e-07
9.97034e-07
9.97034e-07
9.97033e-07
9.98466e-07
9.98809e-07
9.99529e-07
9.99511e-07
9.98341e-07
9.97033e-07
9.97034e-07
9.97033e-07
9.97034e-07
9.97033e-07
9.97034e-07
9.97033e-07
9.98491e-07
9.98894e-07
9.99563e-07
9.98684e-07
9.97033e-07
9.97034e-07
9.97033e-07
9.97034e-07
9.97034e-07
9.97034e-07
9.97033e-07
9.97034e-07
9.97033e-07
9.98933e-07
9.99697e-07
9.98617e-07
9.97033e-07
9.97034e-07
9.97034e-07
9.97034e-07
9.97034e-07
9.97034e-07
9.97034e-07
9.97034e-07
9.97033e-07
9.98919e-07
9.99706e-07
9.98666e-07
9.97033e-07
9.97034e-07
9.97033e-07
9.97034e-07
9.97034e-07
9.97034e-07
9.97033e-07
9.97034e-07
9.97033e-07
9.98925e-07
9.99707e-07
9.99503e-07
9.98489e-07
9.97033e-07
9.97034e-07
9.97033e-07
9.97034e-07
9.97033e-07
9.97034e-07
9.97033e-07
9.98699e-07
9.98935e-07
9.99695e-07
9.99542e-07
9.98812e-07
9.98466e-07
9.97033e-07
9.97034e-07
9.97034e-07
9.97034e-07
9.97033e-07
9.98666e-07
9.98853e-07
9.9899e-07
9.99525e-07
9.98809e-07
9.98491e-07
9.97033e-07
9.97033e-07
9.97033e-07
9.98699e-07
9.98853e-07
9.98965e-07
9.99678e-07
9.99529e-07
9.98894e-07
9.98933e-07
9.98919e-07
9.98925e-07
9.98935e-07
9.98989e-07
9.99678e-07
9.99563e-07
9.99698e-07
9.99706e-07
9.99707e-07
9.99695e-07
9.89982e-07
9.89155e-07
9.89088e-07
9.89137e-07
9.89974e-07
9.90013e-07
9.90008e-07
9.89273e-07
9.88812e-07
9.87504e-07
9.87504e-07
9.87504e-07
9.8896e-07
9.89283e-07
9.89996e-07
9.89273e-07
9.88776e-07
9.87504e-07
9.87505e-07
9.87504e-07
9.87505e-07
9.87504e-07
9.88937e-07
9.8928e-07
9.9e-07
9.89982e-07
9.88812e-07
9.87504e-07
9.87505e-07
9.87504e-07
9.87505e-07
9.87504e-07
9.87505e-07
9.87504e-07
9.88962e-07
9.89365e-07
9.90034e-07
9.89155e-07
9.87504e-07
9.87505e-07
9.87504e-07
9.87505e-07
9.87504e-07
9.87505e-07
9.87504e-07
9.87505e-07
9.87504e-07
9.89404e-07
9.90168e-07
9.89088e-07
9.87504e-07
9.87504e-07
9.87505e-07
9.87504e-07
9.87505e-07
9.87504e-07
9.87505e-07
9.87504e-07
9.87504e-07
9.8939e-07
9.90177e-07
9.89137e-07
9.87504e-07
9.87505e-07
9.87504e-07
9.87505e-07
9.87504e-07
9.87505e-07
9.87504e-07
9.87505e-07
9.87504e-07
9.89396e-07
9.90178e-07
9.89974e-07
9.8896e-07
9.87504e-07
9.87505e-07
9.87504e-07
9.87505e-07
9.87504e-07
9.87505e-07
9.87504e-07
9.8917e-07
9.89406e-07
9.90165e-07
9.90013e-07
9.89283e-07
9.88937e-07
9.87504e-07
9.87505e-07
9.87504e-07
9.87505e-07
9.87504e-07
9.89137e-07
9.89323e-07
9.8946e-07
9.89996e-07
9.8928e-07
9.88962e-07
9.87504e-07
9.87504e-07
9.87504e-07
9.8917e-07
9.89324e-07
9.89436e-07
9.90149e-07
9.9e-07
9.89365e-07
9.89404e-07
9.8939e-07
9.89396e-07
9.89406e-07
9.8946e-07
9.90149e-07
9.90034e-07
9.90168e-07
9.90177e-07
9.90178e-07
9.90165e-07
9.80453e-07
9.79626e-07
9.79559e-07
9.79608e-07
9.80445e-07
9.80484e-07
9.80479e-07
9.79744e-07
9.79283e-07
9.77975e-07
9.77975e-07
9.77975e-07
9.79431e-07
9.79754e-07
9.80467e-07
9.79744e-07
9.79247e-07
9.77975e-07
9.77976e-07
9.77975e-07
9.77976e-07
9.77975e-07
9.79408e-07
9.79751e-07
9.80471e-07
9.80453e-07
9.79283e-07
9.77975e-07
9.77976e-07
9.77975e-07
9.77976e-07
9.77975e-07
9.77976e-07
9.77975e-07
9.79433e-07
9.79836e-07
9.80505e-07
9.79626e-07
9.77975e-07
9.77976e-07
9.77975e-07
9.77976e-07
9.77975e-07
9.77976e-07
9.77975e-07
9.77976e-07
9.77975e-07
9.79875e-07
9.80639e-07
9.79559e-07
9.77975e-07
9.77975e-07
9.77976e-07
9.77975e-07
9.77976e-07
9.77975e-07
9.77976e-07
9.77975e-07
9.77975e-07
9.79861e-07
9.80648e-07
9.79608e-07
9.77975e-07
9.77976e-07
9.77975e-07
9.77976e-07
9.77975e-07
9.77976e-07
9.77975e-07
9.77976e-07
9.77975e-07
9.79867e-07
9.80649e-07
9.80445e-07
9.79431e-07
9.77975e-07
9.77976e-07
9.77975e-07
9.77976e-07
9.77975e-07
9.77976e-07
9.77975e-07
9.79641e-07
9.79877e-07
9.80636e-07
9.80484e-07
9.79754e-07
9.79408e-07
9.77975e-07
9.77976e-07
9.77975e-07
9.77976e-07
9.77975e-07
9.79608e-07
9.79794e-07
9.79931e-07
9.80467e-07
9.79751e-07
9.79433e-07
9.77975e-07
9.77975e-07
9.77975e-07
9.79641e-07
9.79794e-07
9.79907e-07
9.8062e-07
9.80471e-07
9.79836e-07
9.79875e-07
9.79861e-07
9.79867e-07
9.79877e-07
9.79931e-07
9.8062e-07
9.80505e-07
9.80639e-07
9.80648e-07
9.80649e-07
9.80636e-07
9.70924e-07
9.70097e-07
9.7003e-07
9.70079e-07
9.70916e-07
9.70955e-07
9.7095e-07
9.70214e-07
9.69753e-07
9.68446e-07
9.68446e-07
9.68446e-07
9.69902e-07
9.70225e-07
9.70938e-07
9.70214e-07
9.69718e-07
9.68446e-07
9.68447e-07
9.68446e-07
9.68447e-07
9.68446e-07
9.69879e-07
9.70222e-07
9.70942e-07
9.70924e-07
9.69754e-07
9.68446e-07
9.68447e-07
9.68446e-07
9.68446e-07
9.68446e-07
9.68447e-07
9.68446e-07
9.69904e-07
9.70307e-07
9.70976e-07
9.70097e-07
9.68446e-07
9.68447e-07
9.68446e-07
9.68447e-07
9.68446e-07
9.68447e-07
9.68446e-07
9.68447e-07
9.68446e-07
9.70346e-07
9.7111e-07
9.7003e-07
9.68446e-07
9.68446e-07
9.68446e-07
9.68446e-07
9.68446e-07
9.68446e-07
9.68446e-07
9.68446e-07
9.68446e-07
9.70332e-07
9.71119e-07
9.70079e-07
9.68446e-07
9.68447e-07
9.68446e-07
9.68447e-07
9.68446e-07
9.68447e-07
9.68446e-07
9.68447e-07
9.68446e-07
9.70338e-07
9.7112e-07
9.70916e-07
9.69902e-07
9.68446e-07
9.68447e-07
9.68446e-07
9.68446e-07
9.68446e-07
9.68447e-07
9.68446e-07
9.70112e-07
9.70348e-07
9.71107e-07
9.70955e-07
9.70225e-07
9.69879e-07
9.68446e-07
9.68447e-07
9.68446e-07
9.68447e-07
9.68446e-07
9.70079e-07
9.70265e-07
9.70402e-07
9.70938e-07
9.70222e-07
9.69904e-07
9.68446e-07
9.68446e-07
9.68446e-07
9.70112e-07
9.70265e-07
9.70378e-07
9.71091e-07
9.70942e-07
9.70307e-07
9.70346e-07
9.70332e-07
9.70338e-07
9.70348e-07
9.70402e-07
9.71091e-07
9.70976e-07
9.7111e-07
9.71119e-07
9.7112e-07
9.71107e-07
9.61395e-07
9.60568e-07
9.60501e-07
9.6055e-07
9.61387e-07
9.61426e-07
9.61421e-07
9.60685e-07
9.60224e-07
9.58917e-07
9.58917e-07
9.58917e-07
9.60373e-07
9.60696e-07
9.61409e-07
9.60685e-07
9.60189e-07
9.58917e-07
9.58918e-07
9.58917e-07
9.58918e-07
9.58917e-07
9.6035e-07
9.60693e-07
9.61413e-07
9.61395e-07
9.60224e-07
9.58917e-07
9.58918e-07
9.58917e-07
9.58917e-07
9.58917e-07
9.58918e-07
9.58917e-07
9.60375e-07
9.60778e-07
9.61447e-07
9.60568e-07
9.58917e-07
9.58918e-07
9.58917e-07
9.58918e-07
9.58917e-07
9.58918e-07
9.58917e-07
9.58918e-07
9.58917e-07
9.60817e-07
9.61581e-07
9.60501e-07
9.58917e-07
9.58917e-07
9.58917e-07
9.58917e-07
9.58917e-07
9.58917e-07
9.58917e-07
9.58917e-07
9.58917e-07
9.60803e-07
9.6159e-07
9.6055e-07
9.58917e-07
9.58918e-07
9.58917e-07
9.58918e-07
9.58917e-07
9.58918e-07
9.58917e-07
9.58918e-07
9.58917e-07
9.60808e-07
9.61591e-07
9.61386e-07
9.60373e-07
9.58917e-07
9.58918e-07
9.58917e-07
9.58917e-07
9.58917e-07
9.58918e-07
9.58917e-07
9.60583e-07
9.60819e-07
9.61578e-07
9.61426e-07
9.60695e-07
9.6035e-07
9.58917e-07
9.58918e-07
9.58917e-07
9.58918e-07
9.58917e-07
9.6055e-07
9.60736e-07
9.60873e-07
9.61409e-07
9.60693e-07
9.60375e-07
9.58917e-07
9.58917e-07
9.58917e-07
9.60583e-07
9.60736e-07
9.60849e-07
9.61562e-07
9.61413e-07
9.60778e-07
9.60817e-07
9.60803e-07
9.60808e-07
9.60819e-07
9.60873e-07
9.61562e-07
9.61447e-07
9.61581e-07
9.6159e-07
9.61591e-07
9.61578e-07
9.51866e-07
9.51039e-07
9.50972e-07
9.51021e-07
9.51858e-07
9.51897e-07
9.51892e-07
9.51156e-07
9.50695e-07
9.49388e-07
9.49388e-07
9.49388e-07
9.50844e-07
9.51167e-07
9.5188e-07
9.51156e-07
9.5066e-07
9.49388e-07
9.49389e-07
9.49388e-07
9.49389e-07
9.49388e-07
9.50821e-07
9.51164e-07
9.51884e-07
9.51866e-07
9.50695e-07
9.49388e-07
9.49389e-07
9.49388e-07
9.49388e-07
9.49388e-07
9.49389e-07
9.49388e-07
9.50846e-07
9.51249e-07
9.51918e-07
9.51039e-07
9.49388e-07
9.49389e-07
9.49388e-07
9.49389e-07
9.49388e-07
9.49389e-07
9.49388e-07
9.49389e-07
9.49388e-07
9.51288e-07
9.52052e-07
9.50972e-07
9.49388e-07
9.49388e-07
9.49388e-07
9.49388e-07
9.49388e-07
9.49388e-07
9.49388e-07
9.49388e-07
9.49388e-07
9.51274e-07
9.52061e-07
9.51021e-07
9.49388e-07
9.49389e-07
9.49388e-07
9.49389e-07
9.49388e-07
9.49389e-07
9.49388e-07
9.49389e-07
9.49388e-07
9.51279e-07
9.52062e-07
9.51857e-07
9.50844e-07
9.49388e-07
9.49389e-07
9.49388e-07
9.49388e-07
9.49388e-07
9.49389e-07
9.49388e-07
9.51054e-07
9.5129e-07
9.52049e-07
9.51897e-07
9.51166e-07
9.50821e-07
9.49388e-07
9.49389e-07
9.49388e-07
9.49389e-07
9.49388e-07
9.51021e-07
9.51207e-07
9.51344e-07
9.5188e-07
9.51164e-07
9.50846e-07
9.49388e-07
9.49388e-07
9.49388e-07
9.51054e-07
9.51207e-07
9.5132e-07
9.52033e-07
9.51884e-07
9.51249e-07
9.51288e-07
9.51274e-07
9.51279e-07
9.5129e-07
9.51344e-07
9.52033e-07
9.51918e-07
9.52052e-07
9.52061e-07
9.52062e-07
9.52049e-07
9.42337e-07
9.4151e-07
9.41443e-07
9.41492e-07
9.42329e-07
9.42368e-07
9.42363e-07
9.41627e-07
9.41166e-07
9.39859e-07
9.39859e-07
9.39859e-07
9.41315e-07
9.41638e-07
9.42351e-07
9.41627e-07
9.41131e-07
9.39859e-07
9.3986e-07
9.39859e-07
9.3986e-07
9.39859e-07
9.41292e-07
9.41635e-07
9.42355e-07
9.42337e-07
9.41166e-07
9.39859e-07
9.3986e-07
9.39859e-07
9.39859e-07
9.39859e-07
9.3986e-07
9.39859e-07
9.41317e-07
9.4172e-07
9.42389e-07
9.4151e-07
9.39859e-07
9.3986e-07
9.39859e-07
9.3986e-07
9.39859e-07
9.3986e-07
9.39859e-07
9.3986e-07
9.39859e-07
9.41759e-07
9.42523e-07
9.41443e-07
9.39859e-07
9.39859e-07
9.39859e-07
9.39859e-07
9.39859e-07
9.39859e-07
9.39859e-07
9.39859e-07
9.39859e-07
9.41745e-07
9.42532e-07
9.41492e-07
9.39859e-07
9.3986e-07