/*--------------------------------*- C++ -*----------------------------------*\
| =========                 |                                                 |
| \\      /  F ield         | OpenFOAM: The Open Source CFD Toolbox           |
|  \\    /   O peration     | Version:  v2012                                 |
|   \\  /    A nd           | Website:  www.openfoam.com                      |
|    \\/     M anipulation  |                                                 |
\*---------------------------------------------------------------------------*/
FoamFile
{
    version     2.0;
    format      ascii;
    class       volScalarField;
    location    "95";
    object      p;
}
// * * * * * * * * * * * * * * * * * * * * * * * * * * * * * * * * * * * * * //

dimensions      [0 2 -2 0 0 0 0];


internalField   nonuniform List<scalar> 
292667
(
9.51216e-07
9.42567e-07
9.41972e-07
9.42022e-07
9.42807e-07
9.52016e-07
9.42767e-07
9.40752e-07
9.39555e-07
9.39059e-07
9.39121e-07
9.39762e-07
9.41133e-07
9.43306e-07
9.42767e-07
9.40172e-07
9.38523e-07
9.37606e-07
9.37219e-07
9.3727e-07
9.37769e-07
9.38829e-07
9.40675e-07
9.43426e-07
9.51216e-07
9.40752e-07
9.38523e-07
9.3718e-07
9.36428e-07
9.36105e-07
9.36148e-07
9.36565e-07
9.37439e-07
9.38957e-07
9.41438e-07
9.5057e-07
9.42568e-07
9.39555e-07
9.37606e-07
9.36428e-07
9.35759e-07
9.35469e-07
9.35509e-07
9.35884e-07
9.36661e-07
9.37998e-07
9.40195e-07
9.45715e-07
9.41972e-07
9.39059e-07
9.37219e-07
9.36105e-07
9.35469e-07
9.35193e-07
9.35231e-07
9.3559e-07
9.3633e-07
9.37596e-07
9.3968e-07
9.44269e-07
9.42021e-07
9.39121e-07
9.3727e-07
9.36148e-07
9.35509e-07
9.35231e-07
9.3527e-07
9.35631e-07
9.36376e-07
9.37652e-07
9.39754e-07
9.44552e-07
9.42807e-07
9.39762e-07
9.37769e-07
9.36565e-07
9.35884e-07
9.3559e-07
9.35631e-07
9.36014e-07
9.3681e-07
9.38181e-07
9.40437e-07
9.45988e-07
9.52016e-07
9.41133e-07
9.38829e-07
9.37439e-07
9.36661e-07
9.3633e-07
9.36376e-07
9.3681e-07
9.3772e-07
9.39307e-07
9.41873e-07
9.50389e-07
9.43306e-07
9.40675e-07
9.38957e-07
9.37998e-07
9.37595e-07
9.37652e-07
9.38181e-07
9.39307e-07
9.41252e-07
9.46642e-07
9.43425e-07
9.41438e-07
9.40195e-07
9.3968e-07
9.39753e-07
9.40437e-07
9.41873e-07
9.46642e-07
9.50569e-07
9.45715e-07
9.44269e-07
9.44552e-07
9.45988e-07
9.50389e-07
9.29159e-07
9.28663e-07
9.28623e-07
9.28672e-07
9.2923e-07
9.29072e-07
9.29169e-07
9.28783e-07
9.28493e-07
9.27538e-07
9.27522e-07
9.27538e-07
9.28655e-07
9.28855e-07
9.29243e-07
9.28783e-07
9.28466e-07
9.27564e-07
9.27529e-07
9.27559e-07
9.27529e-07
9.27565e-07
9.2864e-07
9.28847e-07
9.29235e-07
9.29159e-07
9.28493e-07
9.27564e-07
9.27508e-07
9.27524e-07
9.275e-07
9.27524e-07
9.27508e-07
9.27565e-07
9.28647e-07
9.28889e-07
9.29236e-07
9.28664e-07
9.27538e-07
9.27529e-07
9.27524e-07
9.27482e-07
9.27486e-07
9.27482e-07
9.27524e-07
9.27529e-07
9.27538e-07
9.29059e-07
9.29429e-07
9.28623e-07
9.27522e-07
9.27559e-07
9.275e-07
9.27486e-07
9.27473e-07
9.27486e-07
9.275e-07
9.27559e-07
9.27522e-07
9.29081e-07
9.29383e-07
9.28672e-07
9.27538e-07
9.27529e-07
9.27524e-07
9.27482e-07
9.27486e-07
9.27482e-07
9.27524e-07
9.27529e-07
9.27538e-07
9.29067e-07
9.29398e-07
9.2923e-07
9.28655e-07
9.27565e-07
9.27508e-07
9.27524e-07
9.275e-07
9.27524e-07
9.27508e-07
9.27564e-07
9.2886e-07
9.28964e-07
9.29373e-07
9.29072e-07
9.28855e-07
9.2864e-07
9.27565e-07
9.27529e-07
9.27559e-07
9.27529e-07
9.27564e-07
9.28827e-07
9.28928e-07
9.28916e-07
9.29243e-07
9.28847e-07
9.28647e-07
9.27538e-07
9.27522e-07
9.27538e-07
9.2886e-07
9.28929e-07
9.28941e-07
9.29329e-07
9.29235e-07
9.28889e-07
9.29059e-07
9.29081e-07
9.29067e-07
9.28965e-07
9.28916e-07
9.29329e-07
9.29236e-07
9.29429e-07
9.29383e-07
9.29398e-07
9.29373e-07
9.21244e-07
9.20659e-07
9.20612e-07
9.20654e-07
9.2128e-07
9.21274e-07
9.21243e-07
9.20739e-07
9.20398e-07
9.19494e-07
9.19494e-07
9.19494e-07
9.20556e-07
9.20783e-07
9.21277e-07
9.20739e-07
9.20371e-07
9.19527e-07
9.19537e-07
9.19562e-07
9.19537e-07
9.19527e-07
9.2055e-07
9.20783e-07
9.21278e-07
9.21244e-07
9.20398e-07
9.19527e-07
9.19548e-07
9.19584e-07
9.19579e-07
9.19584e-07
9.19548e-07
9.19527e-07
9.20565e-07
9.20853e-07
9.21281e-07
9.20659e-07
9.19494e-07
9.19537e-07
9.19584e-07
9.19589e-07
9.19607e-07
9.19589e-07
9.19584e-07
9.19537e-07
9.19494e-07
9.20945e-07
9.21447e-07
9.20612e-07
9.19494e-07
9.19562e-07
9.19579e-07
9.19607e-07
9.19607e-07
9.19608e-07
9.19579e-07
9.19562e-07
9.19494e-07
9.20955e-07
9.21477e-07
9.20654e-07
9.19494e-07
9.19537e-07
9.19584e-07
9.19589e-07
9.19607e-07
9.19589e-07
9.19584e-07
9.19537e-07
9.19494e-07
9.2095e-07
9.21476e-07
9.21281e-07
9.20556e-07
9.19527e-07
9.19547e-07
9.19584e-07
9.19579e-07
9.19584e-07
9.19547e-07
9.19527e-07
9.20786e-07
9.20916e-07
9.21428e-07
9.21274e-07
9.20783e-07
9.2055e-07
9.19527e-07
9.19537e-07
9.19562e-07
9.19537e-07
9.19527e-07
9.20764e-07
9.20855e-07
9.20926e-07
9.21277e-07
9.20783e-07
9.20565e-07
9.19494e-07
9.19494e-07
9.19494e-07
9.20786e-07
9.20855e-07
9.20908e-07
9.21401e-07
9.21278e-07
9.20853e-07
9.20945e-07
9.20955e-07
9.2095e-07
9.20916e-07
9.20926e-07
9.21401e-07
9.21281e-07
9.21447e-07
9.21477e-07
9.21476e-07
9.21428e-07
9.1336e-07
9.12766e-07
9.12713e-07
9.12758e-07
9.13395e-07
9.13393e-07
9.13361e-07
9.12843e-07
9.12485e-07
9.11564e-07
9.11566e-07
9.11564e-07
9.12637e-07
9.12878e-07
9.13393e-07
9.12843e-07
9.12451e-07
9.11583e-07
9.11598e-07
9.1161e-07
9.11598e-07
9.11583e-07
9.12621e-07
9.12876e-07
9.13396e-07
9.1336e-07
9.12485e-07
9.11583e-07
9.11606e-07
9.11631e-07
9.11632e-07
9.11631e-07
9.11606e-07
9.11583e-07
9.12642e-07
9.12958e-07
9.13398e-07
9.12766e-07
9.11564e-07
9.11598e-07
9.11632e-07
9.11645e-07
9.11658e-07
9.11645e-07
9.11632e-07
9.11598e-07
9.11564e-07
9.13042e-07
9.13564e-07
9.12713e-07
9.11566e-07
9.1161e-07
9.11632e-07
9.11658e-07
9.1166e-07
9.11658e-07
9.11632e-07
9.1161e-07
9.11566e-07
9.13045e-07
9.13591e-07
9.12758e-07
9.11564e-07
9.11598e-07
9.11631e-07
9.11645e-07
9.11658e-07
9.11645e-07
9.11631e-07
9.11598e-07
9.11564e-07
9.13042e-07
9.1359e-07
9.13395e-07
9.12637e-07
9.11583e-07
9.11606e-07
9.11632e-07
9.11632e-07
9.11632e-07
9.11606e-07
9.11583e-07
9.12863e-07
9.13017e-07
9.13543e-07
9.13393e-07
9.12878e-07
9.12621e-07
9.11583e-07
9.11598e-07
9.1161e-07
9.11598e-07
9.11583e-07
9.12837e-07
9.12944e-07
9.13039e-07
9.13393e-07
9.12876e-07
9.12642e-07
9.11564e-07
9.11566e-07
9.11564e-07
9.12863e-07
9.12944e-07
9.13016e-07
9.13521e-07
9.13396e-07
9.12958e-07
9.13042e-07
9.13045e-07
9.13042e-07
9.13017e-07
9.13038e-07
9.13521e-07
9.13398e-07
9.13564e-07
9.13591e-07
9.1359e-07
9.13543e-07
9.05477e-07
9.04879e-07
9.04825e-07
9.04871e-07
9.05511e-07
9.0551e-07
9.05479e-07
9.04956e-07
9.04591e-07
9.03662e-07
9.03664e-07
9.03662e-07
9.04742e-07
9.04989e-07
9.05511e-07
9.04956e-07
9.04554e-07
9.03672e-07
9.03683e-07
9.03688e-07
9.03683e-07
9.03672e-07
9.04722e-07
9.04986e-07
9.05514e-07
9.05477e-07
9.04591e-07
9.03672e-07
9.03687e-07
9.03702e-07
9.03704e-07
9.03702e-07
9.03687e-07
9.03672e-07
9.04746e-07
9.05072e-07
9.05515e-07
9.04879e-07
9.03662e-07
9.03683e-07
9.03703e-07
9.03714e-07
9.03721e-07
9.03714e-07
9.03703e-07
9.03683e-07
9.03662e-07
9.05154e-07
9.05681e-07
9.04825e-07
9.03664e-07
9.03688e-07
9.03704e-07
9.03722e-07
9.03724e-07
9.03722e-07
9.03704e-07
9.03688e-07
9.03664e-07
9.05155e-07
9.05708e-07
9.04871e-07
9.03662e-07
9.03683e-07
9.03702e-07
9.03714e-07
9.03721e-07
9.03714e-07
9.03702e-07
9.03683e-07
9.03662e-07
9.05152e-07
9.05707e-07
9.05511e-07
9.04742e-07
9.03672e-07
9.03687e-07
9.03703e-07
9.03704e-07
9.03703e-07
9.03687e-07
9.03672e-07
9.04967e-07
9.05131e-07
9.0566e-07
9.0551e-07
9.04989e-07
9.04722e-07
9.03672e-07
9.03683e-07
9.03688e-07
9.03683e-07
9.03672e-07
9.04938e-07
9.05053e-07
9.05155e-07
9.05511e-07
9.04986e-07
9.04746e-07
9.03662e-07
9.03664e-07
9.03662e-07
9.04967e-07
9.05053e-07
9.05132e-07
9.05639e-07
9.05514e-07
9.05072e-07
9.05154e-07
9.05155e-07
9.05152e-07
9.05131e-07
9.05155e-07
9.05639e-07
9.05515e-07
9.05681e-07
9.05708e-07
9.05707e-07
9.0566e-07
8.97592e-07
8.96993e-07
8.96939e-07
8.96984e-07
8.97626e-07
8.97625e-07
8.97595e-07
8.9707e-07
8.96702e-07
8.95769e-07
8.95771e-07
8.95769e-07
8.96853e-07
8.97102e-07
8.97627e-07
8.9707e-07
8.96664e-07
8.95774e-07
8.95781e-07
8.95783e-07
8.95781e-07
8.95774e-07
8.96831e-07
8.97099e-07
8.9763e-07
8.97592e-07
8.96702e-07
8.95774e-07
8.95783e-07
8.95792e-07
8.95793e-07
8.95792e-07
8.95783e-07
8.95774e-07
8.96856e-07
8.97187e-07
8.97631e-07
8.96993e-07
8.95769e-07
8.95781e-07
8.95792e-07
8.958e-07
8.95804e-07
8.958e-07
8.95792e-07
8.95781e-07
8.95769e-07
8.97267e-07
8.97796e-07
8.96939e-07
8.95771e-07
8.95783e-07
8.95793e-07
8.95804e-07
8.95805e-07
8.95804e-07
8.95793e-07
8.95783e-07
8.95771e-07
8.97267e-07
8.97823e-07
8.96984e-07
8.95769e-07
8.95781e-07
8.95792e-07
8.958e-07
8.95804e-07
8.958e-07
8.95792e-07
8.95781e-07
8.95769e-07
8.97265e-07
8.97822e-07
8.97626e-07
8.96853e-07
8.95774e-07
8.95783e-07
8.95792e-07
8.95793e-07
8.95792e-07
8.95783e-07
8.95774e-07
8.97077e-07
8.97245e-07
8.97775e-07
8.97625e-07
8.97102e-07
8.96831e-07
8.95774e-07
8.95781e-07
8.95783e-07
8.95781e-07
8.95774e-07
8.97046e-07
8.97165e-07
8.9727e-07
8.97627e-07
8.97099e-07
8.96856e-07
8.95769e-07
8.95771e-07
8.95769e-07
8.97077e-07
8.97166e-07
8.97246e-07
8.97755e-07
8.9763e-07
8.97187e-07
8.97267e-07
8.97267e-07
8.97265e-07
8.97245e-07
8.97271e-07
8.97755e-07
8.97631e-07
8.97796e-07
8.97823e-07
8.97822e-07
8.97775e-07
8.89706e-07
8.89106e-07
8.89052e-07
8.89098e-07
8.8974e-07
8.8974e-07
8.89709e-07
8.89184e-07
8.88815e-07
8.8788e-07
8.87881e-07
8.8788e-07
8.88966e-07
8.89215e-07
8.89742e-07
8.89184e-07
8.88776e-07
8.87882e-07
8.87887e-07
8.87888e-07
8.87887e-07
8.87882e-07
8.88943e-07
8.89212e-07
8.89744e-07
8.89706e-07
8.88815e-07
8.87882e-07
8.87888e-07
8.87892e-07
8.87893e-07
8.87892e-07
8.87888e-07
8.87882e-07
8.88969e-07
8.89301e-07
8.89745e-07
8.89106e-07
8.8788e-07
8.87887e-07
8.87892e-07
8.87898e-07
8.87899e-07
8.87898e-07
8.87892e-07
8.87887e-07
8.8788e-07
8.89381e-07
8.8991e-07
8.89052e-07
8.87881e-07
8.87888e-07
8.87893e-07
8.87899e-07
8.879e-07
8.87899e-07
8.87893e-07
8.87888e-07
8.87881e-07
8.8938e-07
8.89937e-07
8.89098e-07
8.8788e-07
8.87887e-07
8.87892e-07
8.87898e-07
8.87899e-07
8.87898e-07
8.87892e-07
8.87887e-07
8.8788e-07
8.89378e-07
8.89936e-07
8.8974e-07
8.88966e-07
8.87882e-07
8.87888e-07
8.87892e-07
8.87894e-07
8.87892e-07
8.87888e-07
8.87882e-07
8.8919e-07
8.89359e-07
8.89889e-07
8.8974e-07
8.89215e-07
8.88943e-07
8.87882e-07
8.87887e-07
8.87888e-07
8.87887e-07
8.87882e-07
8.89157e-07
8.89279e-07
8.89385e-07
8.89742e-07
8.89212e-07
8.88969e-07
8.8788e-07
8.87881e-07
8.8788e-07
8.8919e-07
8.89279e-07
8.89361e-07
8.89869e-07
8.89744e-07
8.89301e-07
8.89381e-07
8.8938e-07
8.89378e-07
8.89359e-07
8.89385e-07
8.89869e-07
8.89745e-07
8.8991e-07
8.89937e-07
8.89936e-07
8.89889e-07
8.8182e-07
8.8122e-07
8.81165e-07
8.81211e-07
8.81854e-07
8.81854e-07
8.81823e-07
8.81297e-07
8.80927e-07
8.79991e-07
8.79993e-07
8.79991e-07
8.81079e-07
8.81329e-07
8.81855e-07
8.81297e-07
8.80888e-07
8.79993e-07
8.79996e-07
8.79996e-07
8.79996e-07
8.79993e-07
8.81056e-07
8.81326e-07
8.81858e-07
8.8182e-07
8.80928e-07
8.79993e-07
8.79997e-07
8.79998e-07
8.8e-07
8.79998e-07
8.79997e-07
8.79993e-07
8.81082e-07
8.81414e-07
8.81859e-07
8.8122e-07
8.79991e-07
8.79996e-07
8.79999e-07
8.80002e-07
8.80003e-07
8.80002e-07
8.79999e-07
8.79996e-07
8.79991e-07
8.81494e-07
8.82024e-07
8.81165e-07
8.79993e-07
8.79996e-07
8.8e-07
8.80003e-07
8.80004e-07
8.80003e-07
8.8e-07
8.79996e-07
8.79993e-07
8.81493e-07
8.8205e-07
8.81211e-07
8.79992e-07
8.79996e-07
8.79999e-07
8.80002e-07
8.80003e-07
8.80002e-07
8.79999e-07
8.79997e-07
8.79992e-07
8.81491e-07
8.82049e-07
8.81854e-07
8.81079e-07
8.79993e-07
8.79997e-07
8.79999e-07
8.8e-07
8.79999e-07
8.79997e-07
8.79993e-07
8.81303e-07
8.81473e-07
8.82003e-07
8.81854e-07
8.81329e-07
8.81056e-07
8.79993e-07
8.79996e-07
8.79996e-07
8.79996e-07
8.79993e-07
8.8127e-07
8.81392e-07
8.81499e-07
8.81855e-07
8.81326e-07
8.81082e-07
8.79992e-07
8.79993e-07
8.79992e-07
8.81303e-07
8.81392e-07
8.81475e-07
8.81984e-07
8.81858e-07
8.81414e-07
8.81494e-07
8.81493e-07
8.81491e-07
8.81472e-07
8.81499e-07
8.81983e-07
8.81859e-07
8.82024e-07
8.8205e-07
8.82049e-07
8.82003e-07
8.73934e-07
8.73333e-07
8.73278e-07
8.73324e-07
8.73967e-07
8.73967e-07
8.73937e-07
8.73411e-07
8.73041e-07
8.72104e-07
8.72105e-07
8.72104e-07
8.73192e-07
8.73442e-07
8.73969e-07
8.73411e-07
8.73001e-07
8.72105e-07
8.72108e-07
8.72107e-07
8.72108e-07
8.72105e-07
8.73169e-07
8.73439e-07
8.73972e-07
8.73934e-07
8.73041e-07
8.72105e-07
8.72107e-07
8.72108e-07
8.72109e-07
8.72108e-07
8.72107e-07
8.72105e-07
8.73195e-07
8.73528e-07
8.73972e-07
8.73333e-07
8.72104e-07
8.72108e-07
8.72108e-07
8.72111e-07
8.72111e-07
8.72111e-07
8.72108e-07
8.72108e-07
8.72104e-07
8.73608e-07
8.74137e-07
8.73278e-07
8.72105e-07
8.72107e-07
8.72109e-07
8.72111e-07
8.72111e-07
8.72111e-07
8.72109e-07
8.72107e-07
8.72105e-07
8.73606e-07
8.74164e-07
8.73324e-07
8.72104e-07
8.72108e-07
8.72108e-07
8.72111e-07
8.72111e-07
8.72111e-07
8.72108e-07
8.72108e-07
8.72104e-07
8.73604e-07
8.74163e-07
8.73967e-07
8.73192e-07
8.72105e-07
8.72108e-07
8.72108e-07
8.72109e-07
8.72108e-07
8.72108e-07
8.72105e-07
8.73416e-07
8.73586e-07
8.74117e-07
8.73967e-07
8.73442e-07
8.73169e-07
8.72105e-07
8.72108e-07
8.72107e-07
8.72108e-07
8.72105e-07
8.73383e-07
8.73506e-07
8.73613e-07
8.73969e-07
8.73439e-07
8.73195e-07
8.72104e-07
8.72105e-07
8.72104e-07
8.73416e-07
8.73506e-07
8.73588e-07
8.74097e-07
8.73972e-07
8.73528e-07
8.73608e-07
8.73606e-07
8.73604e-07
8.73586e-07
8.73612e-07
8.74097e-07
8.73972e-07
8.74137e-07
8.74164e-07
8.74163e-07
8.74117e-07
8.66047e-07
8.65446e-07
8.65392e-07
8.65438e-07
8.66081e-07
8.66081e-07
8.6605e-07
8.65524e-07
8.65154e-07
8.64217e-07
8.64218e-07
8.64217e-07
8.65305e-07
8.65556e-07
8.66083e-07
8.65524e-07
8.65114e-07
8.64218e-07
8.6422e-07
8.64219e-07
8.6422e-07
8.64218e-07
8.65282e-07
8.65553e-07
8.66085e-07
8.66047e-07
8.65154e-07
8.64218e-07
8.64219e-07
8.6422e-07
8.6422e-07
8.6422e-07
8.64219e-07
8.64218e-07
8.65308e-07
8.65641e-07
8.66086e-07
8.65446e-07
8.64217e-07
8.6422e-07
8.6422e-07
8.64221e-07
8.64221e-07
8.64221e-07
8.6422e-07
8.6422e-07
8.64217e-07
8.65721e-07
8.66251e-07
8.65392e-07
8.64218e-07
8.64219e-07
8.6422e-07
8.64221e-07
8.64221e-07
8.64221e-07
8.6422e-07
8.64219e-07
8.64218e-07
8.65719e-07
8.66277e-07
8.65438e-07
8.64217e-07
8.6422e-07
8.6422e-07
8.64221e-07
8.64221e-07
8.64221e-07
8.6422e-07
8.6422e-07
8.64217e-07
8.65717e-07
8.66276e-07
8.66081e-07
8.65305e-07
8.64218e-07
8.6422e-07
8.6422e-07
8.6422e-07
8.6422e-07
8.64219e-07
8.64218e-07
8.65529e-07
8.65699e-07
8.6623e-07
8.66081e-07
8.65556e-07
8.65282e-07
8.64218e-07
8.6422e-07
8.64219e-07
8.6422e-07
8.64218e-07
8.65496e-07
8.65619e-07
8.65725e-07
8.66083e-07
8.65553e-07
8.65308e-07
8.64217e-07
8.64218e-07
8.64217e-07
8.65529e-07
8.65619e-07
8.65702e-07
8.6621e-07
8.66085e-07
8.65641e-07
8.65721e-07
8.6572e-07
8.65718e-07
8.65699e-07
8.65726e-07
8.66211e-07
8.66086e-07
8.66251e-07
8.66277e-07
8.66276e-07
8.6623e-07
8.5816e-07
8.5756e-07
8.57505e-07
8.57551e-07
8.58194e-07
8.58194e-07
8.58164e-07
8.57637e-07
8.57267e-07
8.5633e-07
8.56331e-07
8.5633e-07
8.57419e-07
8.57669e-07
8.58196e-07
8.57637e-07
8.57227e-07
8.56331e-07
8.56333e-07
8.56332e-07
8.56333e-07
8.56331e-07
8.57395e-07
8.57666e-07
8.58199e-07
8.5816e-07
8.57267e-07
8.56331e-07
8.56332e-07
8.56332e-07
8.56332e-07
8.56332e-07
8.56332e-07
8.56331e-07
8.57422e-07
8.57754e-07
8.58199e-07
8.5756e-07
8.5633e-07
8.56333e-07
8.56332e-07
8.56334e-07
8.56332e-07
8.56334e-07
8.56332e-07
8.56333e-07
8.5633e-07
8.57834e-07
8.58364e-07
8.57505e-07
8.56331e-07
8.56332e-07
8.56332e-07
8.56332e-07
8.56333e-07
8.56332e-07
8.56332e-07
8.56332e-07
8.56331e-07
8.57833e-07
8.5839e-07
8.57551e-07
8.5633e-07
8.56333e-07
8.56332e-07
8.56334e-07
8.56332e-07
8.56334e-07
8.56332e-07
8.56333e-07
8.5633e-07
8.57831e-07
8.58389e-07
8.58194e-07
8.57419e-07
8.56331e-07
8.56332e-07
8.56332e-07
8.56332e-07
8.56332e-07
8.56332e-07
8.56331e-07
8.57642e-07
8.57812e-07
8.58343e-07
8.58194e-07
8.57669e-07
8.57395e-07
8.56331e-07
8.56333e-07
8.56332e-07
8.56333e-07
8.56331e-07
8.57609e-07
8.57732e-07
8.57839e-07
8.58196e-07
8.57666e-07
8.57422e-07
8.5633e-07
8.56331e-07
8.5633e-07
8.57642e-07
8.57732e-07
8.57815e-07
8.58324e-07
8.58199e-07
8.57754e-07
8.57834e-07
8.57833e-07
8.57831e-07
8.57812e-07
8.57839e-07
8.58324e-07
8.58199e-07
8.58364e-07
8.5839e-07
8.58389e-07
8.58343e-07
8.50274e-07
8.49673e-07
8.49618e-07
8.49664e-07
8.50307e-07
8.50308e-07
8.50277e-07
8.49751e-07
8.4938e-07
8.48443e-07
8.48444e-07
8.48443e-07
8.49532e-07
8.49782e-07
8.50309e-07
8.49751e-07
8.49341e-07
8.48444e-07
8.48446e-07
8.48445e-07
8.48446e-07
8.48444e-07
8.49509e-07
8.49779e-07
8.50312e-07
8.50274e-07
8.4938e-07
8.48444e-07
8.48445e-07
8.48444e-07
8.48445e-07
8.48444e-07
8.48445e-07
8.48444e-07
8.49535e-07
8.49868e-07
8.50313e-07
8.49673e-07
8.48443e-07
8.48446e-07
8.48444e-07
8.48446e-07
8.48445e-07
8.48446e-07
8.48444e-07
8.48446e-07
8.48443e-07
8.49948e-07
8.50477e-07
8.49618e-07
8.48444e-07
8.48445e-07
8.48445e-07
8.48445e-07
8.48445e-07
8.48445e-07
8.48445e-07
8.48445e-07
8.48444e-07
8.49946e-07
8.50504e-07
8.49664e-07
8.48443e-07
8.48446e-07
8.48444e-07
8.48446e-07
8.48445e-07
8.48446e-07
8.48444e-07
8.48446e-07
8.48443e-07
8.49944e-07
8.50503e-07
8.50307e-07
8.49532e-07
8.48444e-07
8.48445e-07
8.48444e-07
8.48445e-07
8.48444e-07
8.48445e-07
8.48444e-07
8.49756e-07
8.49926e-07
8.50457e-07
8.50307e-07
8.49782e-07
8.49509e-07
8.48444e-07
8.48446e-07
8.48445e-07
8.48446e-07
8.48444e-07
8.49723e-07
8.49846e-07
8.49952e-07
8.50309e-07
8.49779e-07
8.49535e-07
8.48443e-07
8.48444e-07
8.48443e-07
8.49755e-07
8.49845e-07
8.49928e-07
8.50437e-07
8.50312e-07
8.49868e-07
8.49947e-07
8.49946e-07
8.49944e-07
8.49926e-07
8.49952e-07
8.50437e-07
8.50312e-07
8.50477e-07
8.50504e-07
8.50503e-07
8.50456e-07
8.42387e-07
8.41786e-07
8.41732e-07
8.41778e-07
8.42421e-07
8.42421e-07
8.4239e-07
8.41864e-07
8.41494e-07
8.40557e-07
8.40558e-07
8.40557e-07
8.41645e-07
8.41896e-07
8.42423e-07
8.41864e-07
8.41454e-07
8.40557e-07
8.40559e-07
8.40558e-07
8.40559e-07
8.40557e-07
8.41622e-07
8.41893e-07
8.42425e-07
8.42387e-07
8.41494e-07
8.40557e-07
8.40558e-07
8.40557e-07
8.40558e-07
8.40557e-07
8.40558e-07
8.40557e-07
8.41648e-07
8.41981e-07
8.42426e-07
8.41787e-07
8.40557e-07
8.40559e-07
8.40557e-07
8.40559e-07
8.40558e-07
8.40559e-07
8.40557e-07
8.40559e-07
8.40557e-07
8.42061e-07
8.42591e-07
8.41732e-07
8.40558e-07
8.40558e-07
8.40558e-07
8.40558e-07
8.40558e-07
8.40558e-07
8.40558e-07
8.40558e-07
8.40558e-07
8.42059e-07
8.42617e-07
8.41778e-07
8.40557e-07
8.40559e-07
8.40557e-07
8.40559e-07
8.40558e-07
8.40559e-07
8.40557e-07
8.40559e-07
8.40557e-07
8.42057e-07
8.42616e-07
8.42421e-07
8.41645e-07
8.40557e-07
8.40558e-07
8.40557e-07
8.40558e-07
8.40557e-07
8.40558e-07
8.40557e-07
8.41869e-07
8.42039e-07
8.4257e-07
8.42421e-07
8.41896e-07
8.41622e-07
8.40557e-07
8.40559e-07
8.40558e-07
8.40559e-07
8.40557e-07
8.41836e-07
8.41959e-07
8.42066e-07
8.42423e-07
8.41893e-07
8.41648e-07
8.40557e-07
8.40557e-07
8.40557e-07
8.41869e-07
8.41959e-07
8.42041e-07
8.42551e-07
8.42425e-07
8.41981e-07
8.42061e-07
8.42059e-07
8.42057e-07
8.42039e-07
8.42066e-07
8.4255e-07
8.42426e-07
8.42591e-07
8.42617e-07
8.42616e-07
8.4257e-07
8.345e-07
8.339e-07
8.33845e-07
8.33891e-07
8.34534e-07
8.34534e-07
8.34503e-07
8.33977e-07
8.33607e-07
8.3267e-07
8.32671e-07
8.3267e-07
8.33758e-07
8.34009e-07
8.34536e-07
8.33977e-07
8.33567e-07
8.3267e-07
8.32672e-07
8.32671e-07
8.32672e-07
8.3267e-07
8.33735e-07
8.34006e-07
8.34539e-07
8.345e-07
8.33607e-07
8.3267e-07
8.32671e-07
8.3267e-07
8.32671e-07
8.3267e-07
8.32671e-07
8.3267e-07
8.33761e-07
8.34094e-07
8.34539e-07
8.339e-07
8.3267e-07
8.32672e-07
8.32671e-07
8.32672e-07
8.32671e-07
8.32672e-07
8.32671e-07
8.32672e-07
8.3267e-07
8.34174e-07
8.34704e-07
8.33845e-07
8.32671e-07
8.32671e-07
8.32671e-07
8.32671e-07
8.32671e-07
8.32671e-07
8.32671e-07
8.32671e-07
8.32671e-07
8.34173e-07
8.3473e-07
8.33891e-07
8.3267e-07
8.32672e-07
8.3267e-07
8.32672e-07
8.32671e-07
8.32672e-07
8.32671e-07
8.32672e-07
8.3267e-07
8.34171e-07
8.3473e-07
8.34534e-07
8.33759e-07
8.3267e-07
8.32671e-07
8.32671e-07
8.32671e-07
8.32671e-07
8.32671e-07
8.3267e-07
8.33982e-07
8.34153e-07
8.34683e-07
8.34534e-07
8.34009e-07
8.33735e-07
8.3267e-07
8.32672e-07
8.32671e-07
8.32672e-07
8.3267e-07
8.33949e-07
8.34072e-07
8.34179e-07
8.34536e-07
8.34006e-07
8.33761e-07
8.3267e-07
8.32671e-07
8.3267e-07
8.33982e-07
8.34072e-07
8.34155e-07
8.34664e-07
8.34539e-07
8.34095e-07
8.34174e-07
8.34173e-07
8.34171e-07
8.34153e-07
8.34179e-07
8.34664e-07
8.34539e-07
8.34704e-07
8.3473e-07
8.3473e-07
8.34683e-07
8.26613e-07
8.26013e-07
8.25958e-07
8.26004e-07
8.26647e-07
8.26647e-07
8.26617e-07
8.2609e-07
8.2572e-07
8.24783e-07
8.24784e-07
8.24783e-07
8.25872e-07
8.26122e-07
8.26649e-07
8.26091e-07
8.2568e-07
8.24783e-07
8.24785e-07
8.24784e-07
8.24785e-07
8.24783e-07
8.25848e-07
8.26119e-07
8.26652e-07
8.26614e-07
8.2572e-07
8.24783e-07
8.24784e-07
8.24784e-07
8.24784e-07
8.24784e-07
8.24784e-07
8.24783e-07
8.25875e-07
8.26208e-07
8.26652e-07
8.26013e-07
8.24783e-07
8.24785e-07
8.24784e-07
8.24786e-07
8.24784e-07
8.24786e-07
8.24784e-07
8.24785e-07
8.24783e-07
8.26287e-07
8.26817e-07
8.25958e-07
8.24784e-07
8.24784e-07
8.24784e-07
8.24784e-07
8.24784e-07
8.24784e-07
8.24784e-07
8.24784e-07
8.24784e-07
8.26286e-07
8.26844e-07
8.26004e-07
8.24783e-07
8.24786e-07
8.24784e-07
8.24786e-07
8.24784e-07
8.24786e-07
8.24784e-07
8.24785e-07
8.24783e-07
8.26284e-07
8.26843e-07
8.26647e-07
8.25872e-07
8.24784e-07
8.24785e-07
8.24784e-07
8.24784e-07
8.24784e-07
8.24785e-07
8.24783e-07
8.26095e-07
8.26266e-07
8.26797e-07
8.26647e-07
8.26122e-07
8.25848e-07
8.24784e-07
8.24786e-07
8.24784e-07
8.24786e-07
8.24783e-07
8.26062e-07
8.26185e-07
8.26292e-07
8.26649e-07
8.26119e-07
8.25875e-07
8.24783e-07
8.24784e-07
8.24783e-07
8.26095e-07
8.26186e-07
8.26268e-07
8.26777e-07
8.26652e-07
8.26208e-07
8.26287e-07
8.26286e-07
8.26284e-07
8.26266e-07
8.26292e-07
8.26777e-07
8.26652e-07
8.26817e-07
8.26844e-07
8.26843e-07
8.26797e-07
8.18727e-07
8.18126e-07
8.18071e-07
8.18117e-07
8.18761e-07
8.18761e-07
8.1873e-07
8.18204e-07
8.17833e-07
8.16896e-07
8.16897e-07
8.16896e-07
8.17985e-07
8.18236e-07
8.18762e-07
8.18204e-07
8.17794e-07
8.16897e-07
8.16899e-07
8.16897e-07
8.16899e-07
8.16897e-07
8.17962e-07
8.18232e-07
8.18765e-07
8.18727e-07
8.17834e-07
8.16897e-07
8.16898e-07
8.16897e-07
8.16898e-07
8.16897e-07
8.16898e-07
8.16897e-07
8.17988e-07
8.18321e-07
8.18766e-07
8.18126e-07
8.16896e-07
8.16899e-07
8.16897e-07
8.16899e-07
8.16897e-07
8.16899e-07
8.16897e-07
8.16899e-07
8.16896e-07
8.18401e-07
8.18931e-07
8.18072e-07
8.16897e-07
8.16897e-07
8.16898e-07
8.16897e-07
8.16898e-07
8.16897e-07
8.16898e-07
8.16897e-07
8.16897e-07
8.18399e-07
8.18957e-07
8.18118e-07
8.16896e-07
8.16899e-07
8.16897e-07
8.16899e-07
8.16897e-07
8.16899e-07
8.16897e-07
8.16899e-07
8.16896e-07
8.18397e-07
8.18956e-07
8.18761e-07
8.17985e-07
8.16897e-07
8.16898e-07
8.16897e-07
8.16898e-07
8.16897e-07
8.16898e-07
8.16897e-07
8.18209e-07
8.18379e-07
8.1891e-07
8.18761e-07
8.18236e-07
8.17962e-07
8.16897e-07
8.16899e-07
8.16897e-07
8.16899e-07
8.16897e-07
8.18176e-07
8.18299e-07
8.18406e-07
8.18763e-07
8.18232e-07
8.17988e-07
8.16896e-07
8.16897e-07
8.16896e-07
8.18209e-07
8.18299e-07
8.18381e-07
8.1889e-07
8.18765e-07
8.18321e-07
8.18401e-07
8.18399e-07
8.18397e-07
8.18379e-07
8.18406e-07
8.1889e-07
8.18766e-07
8.18931e-07
8.18957e-07
8.18956e-07
8.1891e-07
8.1084e-07
8.1024e-07
8.10185e-07
8.10231e-07
8.10874e-07
8.10874e-07
8.10843e-07
8.10317e-07
8.09947e-07
8.0901e-07
8.09011e-07
8.0901e-07
8.10098e-07
8.10349e-07
8.10876e-07
8.10317e-07
8.09907e-07
8.0901e-07
8.09012e-07
8.09011e-07
8.09012e-07
8.0901e-07
8.10075e-07
8.10346e-07
8.10879e-07
8.1084e-07
8.09947e-07
8.0901e-07
8.09011e-07
8.0901e-07
8.09011e-07
8.0901e-07
8.09011e-07
8.0901e-07
8.10101e-07
8.10434e-07
8.10879e-07
8.1024e-07
8.0901e-07
8.09012e-07
8.0901e-07
8.09012e-07
8.0901e-07
8.09012e-07
8.0901e-07
8.09012e-07
8.0901e-07
8.10514e-07
8.11044e-07
8.10185e-07
8.09011e-07
8.09011e-07
8.09011e-07
8.0901e-07
8.09011e-07
8.0901e-07
8.09011e-07
8.09011e-07
8.09011e-07
8.10512e-07
8.1107e-07
8.10231e-07
8.0901e-07
8.09012e-07
8.0901e-07
8.09012e-07
8.0901e-07
8.09012e-07
8.0901e-07
8.09012e-07
8.0901e-07
8.10511e-07
8.11069e-07
8.10874e-07
8.10098e-07
8.0901e-07
8.09011e-07
8.0901e-07
8.09011e-07
8.0901e-07
8.09011e-07
8.0901e-07
8.10322e-07
8.10492e-07
8.11023e-07
8.10874e-07
8.10349e-07
8.10075e-07
8.0901e-07
8.09012e-07
8.09011e-07
8.09012e-07
8.0901e-07
8.10289e-07
8.10412e-07
8.10519e-07
8.10876e-07
8.10346e-07
8.10101e-07
8.0901e-07
8.09011e-07
8.0901e-07
8.10322e-07
8.10412e-07
8.10495e-07
8.11004e-07
8.10879e-07
8.10434e-07
8.10514e-07
8.10512e-07
8.10511e-07
8.10492e-07
8.10519e-07
8.11004e-07
8.10879e-07
8.11044e-07
8.1107e-07
8.11069e-07
8.11023e-07
8.02954e-07
8.02353e-07
8.02298e-07
8.02344e-07
8.02987e-07
8.02987e-07
8.02957e-07
8.02431e-07
8.0206e-07
8.01123e-07
8.01124e-07
8.01123e-07
8.02212e-07
8.02462e-07
8.02989e-07
8.02431e-07
8.02021e-07
8.01123e-07
8.01125e-07
8.01124e-07
8.01125e-07
8.01123e-07
8.02188e-07
8.02459e-07
8.02992e-07
8.02954e-07
8.0206e-07
8.01123e-07
8.01124e-07
8.01123e-07
8.01124e-07
8.01123e-07
8.01124e-07
8.01123e-07
8.02214e-07
8.02548e-07
8.02992e-07
8.02353e-07
8.01123e-07
8.01125e-07
8.01123e-07
8.01125e-07
8.01124e-07
8.01125e-07
8.01123e-07
8.01125e-07
8.01123e-07
8.02627e-07
8.03157e-07
8.02298e-07
8.01124e-07
8.01124e-07
8.01124e-07
8.01124e-07
8.01124e-07
8.01124e-07
8.01124e-07
8.01124e-07
8.01124e-07
8.02626e-07
8.03184e-07
8.02344e-07
8.01123e-07
8.01125e-07
8.01123e-07
8.01125e-07
8.01124e-07
8.01125e-07
8.01123e-07
8.01125e-07
8.01123e-07
8.02624e-07
8.03183e-07
8.02987e-07
8.02212e-07
8.01123e-07
8.01124e-07
8.01123e-07
8.01124e-07
8.01123e-07
8.01124e-07
8.01123e-07
8.02435e-07
8.02606e-07
8.03136e-07
8.02987e-07
8.02462e-07
8.02188e-07
8.01123e-07
8.01125e-07
8.01124e-07
8.01125e-07
8.01123e-07
8.02402e-07
8.02525e-07
8.02632e-07
8.02989e-07
8.02459e-07
8.02214e-07
8.01123e-07
8.01124e-07
8.01123e-07
8.02435e-07
8.02525e-07
8.02608e-07
8.03117e-07
8.02992e-07
8.02548e-07
8.02627e-07
8.02626e-07
8.02624e-07
8.02606e-07
8.02632e-07
8.03117e-07
8.02992e-07
8.03157e-07
8.03184e-07
8.03183e-07
8.03137e-07
7.95067e-07
7.94466e-07
7.94411e-07
7.94457e-07
7.951e-07
7.951e-07
7.9507e-07
7.94544e-07
7.94173e-07
7.93236e-07
7.93237e-07
7.93236e-07
7.94325e-07
7.94575e-07
7.95102e-07
7.94544e-07
7.94134e-07
7.93237e-07
7.93239e-07
7.93237e-07
7.93239e-07
7.93237e-07
7.94302e-07
7.94572e-07
7.95105e-07
7.95067e-07
7.94174e-07
7.93237e-07
7.93238e-07
7.93237e-07
7.93237e-07
7.93237e-07
7.93238e-07
7.93237e-07
7.94328e-07
7.94661e-07
7.95106e-07
7.94466e-07
7.93236e-07
7.93239e-07
7.93237e-07
7.93239e-07
7.93237e-07
7.93239e-07
7.93237e-07
7.93239e-07
7.93236e-07
7.94741e-07
7.9527e-07
7.94411e-07
7.93237e-07
7.93237e-07
7.93237e-07
7.93237e-07
7.93237e-07
7.93237e-07
7.93237e-07
7.93237e-07
7.93237e-07
7.94739e-07
7.95297e-07
7.94457e-07
7.93236e-07
7.93239e-07
7.93237e-07
7.93239e-07
7.93237e-07
7.93239e-07
7.93237e-07
7.93239e-07
7.93236e-07
7.94737e-07
7.95296e-07
7.951e-07
7.94325e-07
7.93237e-07
7.93238e-07
7.93237e-07
7.93237e-07
7.93237e-07
7.93238e-07
7.93237e-07
7.94549e-07
7.94719e-07
7.9525e-07
7.951e-07
7.94575e-07
7.94302e-07
7.93237e-07
7.93239e-07
7.93237e-07
7.93239e-07
7.93237e-07
7.94516e-07
7.94639e-07
7.94746e-07
7.95102e-07
7.94572e-07
7.94328e-07
7.93236e-07
7.93237e-07
7.93236e-07
7.94549e-07
7.94639e-07
7.94721e-07
7.9523e-07
7.95105e-07
7.94661e-07
7.94741e-07
7.94739e-07
7.94737e-07
7.94719e-07
7.94746e-07
7.9523e-07
7.95106e-07
7.9527e-07
7.95297e-07
7.95296e-07
7.9525e-07
7.8718e-07
7.86579e-07
7.86525e-07
7.86571e-07
7.87214e-07
7.87214e-07
7.87183e-07
7.86657e-07
7.86287e-07
7.8535e-07
7.85351e-07
7.8535e-07
7.86438e-07
7.86689e-07
7.87216e-07
7.86657e-07
7.86247e-07
7.8535e-07
7.85352e-07
7.8535e-07
7.85352e-07
7.8535e-07
7.86415e-07
7.86685e-07
7.87218e-07
7.8718e-07
7.86287e-07
7.8535e-07
7.85351e-07
7.8535e-07
7.85351e-07
7.8535e-07
7.85351e-07
7.8535e-07
7.86441e-07
7.86774e-07
7.87219e-07
7.8658e-07
7.8535e-07
7.85352e-07
7.8535e-07
7.85352e-07
7.8535e-07
7.85352e-07
7.8535e-07
7.85352e-07
7.8535e-07
7.86854e-07
7.87384e-07
7.86525e-07
7.85351e-07
7.85351e-07
7.85351e-07
7.8535e-07
7.85351e-07
7.8535e-07
7.85351e-07
7.8535e-07
7.85351e-07
7.86852e-07
7.8741e-07
7.86571e-07
7.8535e-07
7.85352e-07
7.8535e-07
7.85352e-07
7.8535e-07
7.85352e-07
7.8535e-07
7.85352e-07
7.8535e-07
7.8685e-07
7.87409e-07
7.87214e-07
7.86438e-07
7.8535e-07
7.85351e-07
7.8535e-07
7.85351e-07
7.8535e-07
7.85351e-07
7.8535e-07
7.86662e-07
7.86832e-07
7.87363e-07
7.87214e-07
7.86689e-07
7.86415e-07
7.8535e-07
7.85352e-07
7.85351e-07
7.85352e-07
7.8535e-07
7.86629e-07
7.86752e-07
7.86859e-07
7.87216e-07
7.86686e-07
7.86441e-07
7.8535e-07
7.85351e-07
7.8535e-07
7.86662e-07
7.86752e-07
7.86835e-07
7.87344e-07
7.87218e-07
7.86774e-07
7.86854e-07
7.86852e-07
7.86851e-07
7.86832e-07
7.86859e-07
7.87344e-07
7.87219e-07
7.87384e-07
7.8741e-07
7.87409e-07
7.87363e-07
7.79293e-07
7.78693e-07
7.78638e-07
7.78684e-07
7.79327e-07
7.79327e-07
7.79297e-07
7.7877e-07
7.784e-07
7.77463e-07
7.77464e-07
7.77463e-07
7.78551e-07
7.78802e-07
7.79329e-07
7.78771e-07
7.7836e-07
7.77463e-07
7.77465e-07
7.77464e-07
7.77465e-07
7.77463e-07
7.78528e-07
7.78799e-07
7.79332e-07
7.79293e-07
7.784e-07
7.77463e-07
7.77464e-07
7.77463e-07
7.77464e-07
7.77463e-07
7.77464e-07
7.77463e-07
7.78554e-07
7.78887e-07
7.79332e-07
7.78693e-07
7.77463e-07
7.77465e-07
7.77463e-07
7.77465e-07
7.77464e-07
7.77465e-07
7.77463e-07
7.77465e-07
7.77463e-07
7.78967e-07
7.79497e-07
7.78638e-07
7.77464e-07
7.77464e-07
7.77464e-07
7.77464e-07
7.77464e-07
7.77464e-07
7.77464e-07
7.77464e-07
7.77464e-07
7.78966e-07
7.79523e-07
7.78684e-07
7.77463e-07
7.77465e-07
7.77463e-07
7.77465e-07
7.77464e-07
7.77465e-07
7.77463e-07
7.77465e-07
7.77463e-07