/*--------------------------------*- C++ -*----------------------------------*\
| =========                 |                                                 |
| \\      /  F ield         | OpenFOAM: The Open Source CFD Toolbox           |
|  \\    /   O peration     | Version:  v2012                                 |
|   \\  /    A nd           | Website:  www.openfoam.com                      |
|    \\/     M anipulation  |                                                 |
\*---------------------------------------------------------------------------*/
FoamFile
{
    version     2.0;
    format      ascii;
    class       volScalarField;
    location    "39";
    object      p;
}
// * * * * * * * * * * * * * * * * * * * * * * * * * * * * * * * * * * * * * //

dimensions      [0 2 -2 0 0 0 0];


internalField   nonuniform List<scalar> 
292667
(
1.30585e-06
1.29592e-06
1.29509e-06
1.29517e-06
1.29632e-06
1.30679e-06
1.29613e-06
1.2932e-06
1.2915e-06
1.29081e-06
1.2909e-06
1.29181e-06
1.29378e-06
1.29699e-06
1.29613e-06
1.29234e-06
1.29001e-06
1.28872e-06
1.28818e-06
1.28825e-06
1.28896e-06
1.29045e-06
1.2931e-06
1.29724e-06
1.30585e-06
1.2932e-06
1.29001e-06
1.28812e-06
1.28706e-06
1.28661e-06
1.28667e-06
1.28726e-06
1.28849e-06
1.29064e-06
1.29424e-06
1.30566e-06
1.29592e-06
1.2915e-06
1.28872e-06
1.28706e-06
1.28612e-06
1.28571e-06
1.28577e-06
1.2863e-06
1.28739e-06
1.28928e-06
1.29244e-06
1.2999e-06
1.29509e-06
1.29081e-06
1.28818e-06
1.28661e-06
1.28571e-06
1.28532e-06
1.28538e-06
1.28588e-06
1.28693e-06
1.28872e-06
1.29171e-06
1.29808e-06
1.29517e-06
1.2909e-06
1.28825e-06
1.28667e-06
1.28577e-06
1.28538e-06
1.28543e-06
1.28594e-06
1.28699e-06
1.2888e-06
1.29182e-06
1.29842e-06
1.29632e-06
1.29181e-06
1.28896e-06
1.28726e-06
1.2863e-06
1.28588e-06
1.28594e-06
1.28648e-06
1.2876e-06
1.28954e-06
1.29279e-06
1.30024e-06
1.30679e-06
1.29378e-06
1.29045e-06
1.28849e-06
1.28739e-06
1.28693e-06
1.28699e-06
1.2876e-06
1.28888e-06
1.29113e-06
1.29486e-06
1.30563e-06
1.29699e-06
1.2931e-06
1.29064e-06
1.28928e-06
1.28872e-06
1.2888e-06
1.28954e-06
1.29113e-06
1.29394e-06
1.30081e-06
1.29724e-06
1.29424e-06
1.29244e-06
1.29171e-06
1.29182e-06
1.29279e-06
1.29486e-06
1.30081e-06
1.30566e-06
1.2999e-06
1.29808e-06
1.29842e-06
1.30024e-06
1.30563e-06
1.27732e-06
1.27629e-06
1.27626e-06
1.2763e-06
1.27724e-06
1.27717e-06
1.27738e-06
1.27657e-06
1.27615e-06
1.27456e-06
1.27454e-06
1.27456e-06
1.2763e-06
1.27658e-06
1.27737e-06
1.27657e-06
1.27616e-06
1.27461e-06
1.27454e-06
1.27459e-06
1.27454e-06
1.27461e-06
1.27627e-06
1.27655e-06
1.27734e-06
1.27732e-06
1.27615e-06
1.27461e-06
1.27454e-06
1.27458e-06
1.27457e-06
1.27458e-06
1.27454e-06
1.27461e-06
1.27626e-06
1.27657e-06
1.27743e-06
1.27629e-06
1.27456e-06
1.27454e-06
1.27458e-06
1.27455e-06
1.27455e-06
1.27455e-06
1.27458e-06
1.27454e-06
1.27456e-06
1.27668e-06
1.27752e-06
1.27626e-06
1.27454e-06
1.27459e-06
1.27457e-06
1.27455e-06
1.27454e-06
1.27455e-06
1.27457e-06
1.27459e-06
1.27454e-06
1.27668e-06
1.27738e-06
1.2763e-06
1.27456e-06
1.27454e-06
1.27458e-06
1.27455e-06
1.27455e-06
1.27455e-06
1.27458e-06
1.27454e-06
1.27456e-06
1.27669e-06
1.27742e-06
1.27724e-06
1.2763e-06
1.27461e-06
1.27454e-06
1.27458e-06
1.27457e-06
1.27458e-06
1.27454e-06
1.27461e-06
1.2764e-06
1.2766e-06
1.27749e-06
1.27717e-06
1.27658e-06
1.27627e-06
1.27461e-06
1.27454e-06
1.27459e-06
1.27454e-06
1.27461e-06
1.27637e-06
1.27657e-06
1.27662e-06
1.27737e-06
1.27655e-06
1.27626e-06
1.27456e-06
1.27454e-06
1.27456e-06
1.2764e-06
1.27657e-06
1.27668e-06
1.27749e-06
1.27734e-06
1.27657e-06
1.27668e-06
1.27668e-06
1.27669e-06
1.2766e-06
1.27662e-06
1.27749e-06
1.27743e-06
1.27752e-06
1.27738e-06
1.27742e-06
1.27749e-06
1.26643e-06
1.26543e-06
1.26537e-06
1.26541e-06
1.26639e-06
1.26646e-06
1.26648e-06
1.26559e-06
1.26511e-06
1.26355e-06
1.26354e-06
1.26355e-06
1.26526e-06
1.2656e-06
1.26642e-06
1.26559e-06
1.26511e-06
1.2636e-06
1.2636e-06
1.26364e-06
1.2636e-06
1.2636e-06
1.26526e-06
1.26559e-06
1.26643e-06
1.26643e-06
1.26511e-06
1.2636e-06
1.26361e-06
1.26367e-06
1.26367e-06
1.26367e-06
1.26361e-06
1.2636e-06
1.26526e-06
1.26565e-06
1.26649e-06
1.26543e-06
1.26355e-06
1.2636e-06
1.26367e-06
1.26369e-06
1.2637e-06
1.26369e-06
1.26367e-06
1.2636e-06
1.26355e-06
1.26568e-06
1.2666e-06
1.26537e-06
1.26354e-06
1.26364e-06
1.26367e-06
1.26371e-06
1.26371e-06
1.26371e-06
1.26367e-06
1.26364e-06
1.26354e-06
1.26567e-06
1.26659e-06
1.26541e-06
1.26355e-06
1.2636e-06
1.26367e-06
1.26369e-06
1.26371e-06
1.26369e-06
1.26367e-06
1.2636e-06
1.26355e-06
1.26567e-06
1.2666e-06
1.26639e-06
1.26526e-06
1.2636e-06
1.26361e-06
1.26367e-06
1.26367e-06
1.26367e-06
1.26361e-06
1.2636e-06
1.26543e-06
1.26568e-06
1.26661e-06
1.26646e-06
1.2656e-06
1.26526e-06
1.2636e-06
1.2636e-06
1.26364e-06
1.2636e-06
1.2636e-06
1.26541e-06
1.2656e-06
1.26573e-06
1.26642e-06
1.26559e-06
1.26526e-06
1.26355e-06
1.26354e-06
1.26355e-06
1.26543e-06
1.2656e-06
1.26571e-06
1.26659e-06
1.26643e-06
1.26565e-06
1.26568e-06
1.26567e-06
1.26567e-06
1.26568e-06
1.26573e-06
1.26659e-06
1.26649e-06
1.2666e-06
1.26659e-06
1.2666e-06
1.26661e-06
1.25561e-06
1.2546e-06
1.25453e-06
1.25458e-06
1.25557e-06
1.25564e-06
1.25566e-06
1.25475e-06
1.25425e-06
1.25266e-06
1.25266e-06
1.25266e-06
1.25439e-06
1.25475e-06
1.2556e-06
1.25475e-06
1.25422e-06
1.25269e-06
1.2527e-06
1.25273e-06
1.2527e-06
1.25269e-06
1.25437e-06
1.25474e-06
1.25561e-06
1.25561e-06
1.25425e-06
1.25269e-06
1.25272e-06
1.25276e-06
1.25276e-06
1.25276e-06
1.25272e-06
1.25269e-06
1.25439e-06
1.25482e-06
1.25567e-06
1.2546e-06
1.25266e-06
1.2527e-06
1.25276e-06
1.25277e-06
1.25279e-06
1.25277e-06
1.25276e-06
1.2527e-06
1.25266e-06
1.25483e-06
1.25578e-06
1.25453e-06
1.25266e-06
1.25273e-06
1.25276e-06
1.25279e-06
1.2528e-06
1.25279e-06
1.25276e-06
1.25273e-06
1.25266e-06
1.25481e-06
1.25577e-06
1.25458e-06
1.25266e-06
1.2527e-06
1.25276e-06
1.25278e-06
1.25279e-06
1.25278e-06
1.25276e-06
1.2527e-06
1.25266e-06
1.25482e-06
1.25577e-06
1.25557e-06
1.25439e-06
1.25269e-06
1.25272e-06
1.25276e-06
1.25276e-06
1.25276e-06
1.25272e-06
1.25269e-06
1.25457e-06
1.25484e-06
1.25579e-06
1.25564e-06
1.25475e-06
1.25437e-06
1.25269e-06
1.2527e-06
1.25273e-06
1.2527e-06
1.25269e-06
1.25454e-06
1.25476e-06
1.25491e-06
1.2556e-06
1.25474e-06
1.25439e-06
1.25266e-06
1.25266e-06
1.25266e-06
1.25457e-06
1.25476e-06
1.25488e-06
1.25577e-06
1.25561e-06
1.25482e-06
1.25483e-06
1.25481e-06
1.25482e-06
1.25484e-06
1.25491e-06
1.25577e-06
1.25567e-06
1.25578e-06
1.25577e-06
1.25577e-06
1.25579e-06
1.24479e-06
1.24377e-06
1.2437e-06
1.24375e-06
1.24474e-06
1.24482e-06
1.24483e-06
1.24391e-06
1.2434e-06
1.24181e-06
1.24181e-06
1.24181e-06
1.24354e-06
1.24391e-06
1.24478e-06
1.24392e-06
1.24338e-06
1.24183e-06
1.24184e-06
1.24185e-06
1.24184e-06
1.24183e-06
1.24352e-06
1.24391e-06
1.24478e-06
1.24479e-06
1.2434e-06
1.24183e-06
1.24185e-06
1.24187e-06
1.24187e-06
1.24187e-06
1.24185e-06
1.24183e-06
1.24354e-06
1.24399e-06
1.24485e-06
1.24377e-06
1.24181e-06
1.24184e-06
1.24187e-06
1.24188e-06
1.24189e-06
1.24188e-06
1.24187e-06
1.24184e-06
1.24181e-06
1.244e-06
1.24495e-06
1.2437e-06
1.24181e-06
1.24185e-06
1.24187e-06
1.24189e-06
1.2419e-06
1.24189e-06
1.24187e-06
1.24185e-06
1.24181e-06
1.24398e-06
1.24494e-06
1.24375e-06
1.24181e-06
1.24184e-06
1.24187e-06
1.24188e-06
1.24189e-06
1.24188e-06
1.24187e-06
1.24184e-06
1.24181e-06
1.24399e-06
1.24495e-06
1.24474e-06
1.24355e-06
1.24183e-06
1.24185e-06
1.24187e-06
1.24187e-06
1.24187e-06
1.24185e-06
1.24183e-06
1.24373e-06
1.24401e-06
1.24496e-06
1.24482e-06
1.24391e-06
1.24352e-06
1.24183e-06
1.24184e-06
1.24185e-06
1.24184e-06
1.24183e-06
1.2437e-06
1.24392e-06
1.24408e-06
1.24478e-06
1.24391e-06
1.24354e-06
1.24181e-06
1.24181e-06
1.24181e-06
1.24373e-06
1.24392e-06
1.24406e-06
1.24495e-06
1.24478e-06
1.24399e-06
1.244e-06
1.24398e-06
1.24399e-06
1.24401e-06
1.24408e-06
1.24495e-06
1.24485e-06
1.24495e-06
1.24494e-06
1.24495e-06
1.24496e-06
1.23396e-06
1.23294e-06
1.23287e-06
1.23292e-06
1.23391e-06
1.23399e-06
1.234e-06
1.23309e-06
1.23257e-06
1.23098e-06
1.23098e-06
1.23097e-06
1.23271e-06
1.23308e-06
1.23395e-06
1.23309e-06
1.23254e-06
1.23098e-06
1.23099e-06
1.23099e-06
1.23099e-06
1.23098e-06
1.23269e-06
1.23308e-06
1.23395e-06
1.23396e-06
1.23257e-06
1.23098e-06
1.23099e-06
1.23101e-06
1.23101e-06
1.23101e-06
1.23099e-06
1.23098e-06
1.23271e-06
1.23316e-06
1.23402e-06
1.23294e-06
1.23097e-06
1.23099e-06
1.23101e-06
1.23102e-06
1.23102e-06
1.23102e-06
1.23101e-06
1.23099e-06
1.23097e-06
1.23317e-06
1.23412e-06
1.23287e-06
1.23098e-06
1.23099e-06
1.23101e-06
1.23102e-06
1.23103e-06
1.23102e-06
1.23101e-06
1.23099e-06
1.23098e-06
1.23315e-06
1.23412e-06
1.23292e-06
1.23097e-06
1.23099e-06
1.23101e-06
1.23102e-06
1.23102e-06
1.23102e-06
1.23101e-06
1.23099e-06
1.23098e-06
1.23316e-06
1.23412e-06
1.23391e-06
1.23271e-06
1.23098e-06
1.23099e-06
1.23101e-06
1.23101e-06
1.23101e-06
1.23099e-06
1.23098e-06
1.2329e-06
1.23319e-06
1.23413e-06
1.23399e-06
1.23308e-06
1.23269e-06
1.23098e-06
1.23099e-06
1.23099e-06
1.23099e-06
1.23098e-06
1.23286e-06
1.23309e-06
1.23326e-06
1.23395e-06
1.23308e-06
1.23271e-06
1.23098e-06
1.23098e-06
1.23098e-06
1.2329e-06
1.23309e-06
1.23323e-06
1.23412e-06
1.23395e-06
1.23316e-06
1.23317e-06
1.23315e-06
1.23316e-06
1.23319e-06
1.23326e-06
1.23412e-06
1.23402e-06
1.23412e-06
1.23412e-06
1.23412e-06
1.23413e-06
1.22313e-06
1.22211e-06
1.22204e-06
1.22209e-06
1.22308e-06
1.22316e-06
1.22318e-06
1.22226e-06
1.22174e-06
1.22014e-06
1.22014e-06
1.22014e-06
1.22188e-06
1.22225e-06
1.22312e-06
1.22226e-06
1.22171e-06
1.22014e-06
1.22015e-06
1.22015e-06
1.22015e-06
1.22014e-06
1.22186e-06
1.22225e-06
1.22313e-06
1.22313e-06
1.22174e-06
1.22014e-06
1.22015e-06
1.22016e-06
1.22016e-06
1.22016e-06
1.22015e-06
1.22014e-06
1.22188e-06
1.22233e-06
1.22319e-06
1.22211e-06
1.22014e-06
1.22015e-06
1.22016e-06
1.22016e-06
1.22017e-06
1.22016e-06
1.22016e-06
1.22015e-06
1.22014e-06
1.22234e-06
1.2233e-06
1.22204e-06
1.22014e-06
1.22015e-06
1.22016e-06
1.22017e-06
1.22017e-06
1.22017e-06
1.22016e-06
1.22015e-06
1.22014e-06
1.22231e-06
1.22329e-06
1.22209e-06
1.22014e-06
1.22015e-06
1.22016e-06
1.22016e-06
1.22017e-06
1.22016e-06
1.22016e-06
1.22015e-06
1.22014e-06
1.22233e-06
1.22329e-06
1.22308e-06
1.22188e-06
1.22014e-06
1.22015e-06
1.22016e-06
1.22016e-06
1.22016e-06
1.22015e-06
1.22014e-06
1.22207e-06
1.22236e-06
1.22331e-06
1.22316e-06
1.22225e-06
1.22186e-06
1.22014e-06
1.22015e-06
1.22015e-06
1.22015e-06
1.22014e-06
1.22203e-06
1.22226e-06
1.22243e-06
1.22312e-06
1.22225e-06
1.22188e-06
1.22014e-06
1.22014e-06
1.22014e-06
1.22207e-06
1.22226e-06
1.2224e-06
1.22329e-06
1.22313e-06
1.22233e-06
1.22234e-06
1.22231e-06
1.22233e-06
1.22236e-06
1.22243e-06
1.22329e-06
1.22319e-06
1.2233e-06
1.22329e-06
1.22329e-06
1.22331e-06
1.2123e-06
1.21128e-06
1.21121e-06
1.21126e-06
1.21225e-06
1.21233e-06
1.21235e-06
1.21142e-06
1.21091e-06
1.20931e-06
1.20931e-06
1.20931e-06
1.21105e-06
1.21142e-06
1.21229e-06
1.21142e-06
1.21088e-06
1.20931e-06
1.20931e-06
1.20931e-06
1.20931e-06
1.20931e-06
1.21102e-06
1.21142e-06
1.2123e-06
1.2123e-06
1.21091e-06
1.20931e-06
1.20931e-06
1.20932e-06
1.20932e-06
1.20932e-06
1.20931e-06
1.20931e-06
1.21105e-06
1.2115e-06
1.21236e-06
1.21128e-06
1.20931e-06
1.20931e-06
1.20932e-06
1.20932e-06
1.20932e-06
1.20932e-06
1.20932e-06
1.20931e-06
1.20931e-06
1.21151e-06
1.21247e-06
1.21121e-06
1.20931e-06
1.20931e-06
1.20932e-06
1.20932e-06
1.20932e-06
1.20932e-06
1.20932e-06
1.20931e-06
1.20931e-06
1.21148e-06
1.21246e-06
1.21126e-06
1.20931e-06
1.20931e-06
1.20932e-06
1.20932e-06
1.20932e-06
1.20932e-06
1.20932e-06
1.20931e-06
1.20931e-06
1.21149e-06
1.21246e-06
1.21225e-06
1.21105e-06
1.20931e-06
1.20931e-06
1.20932e-06
1.20932e-06
1.20932e-06
1.20931e-06
1.20931e-06
1.21124e-06
1.21153e-06
1.21248e-06
1.21233e-06
1.21142e-06
1.21102e-06
1.20931e-06
1.20931e-06
1.20931e-06
1.20931e-06
1.20931e-06
1.2112e-06
1.21143e-06
1.2116e-06
1.21229e-06
1.21142e-06
1.21105e-06
1.20931e-06
1.20931e-06
1.20931e-06
1.21124e-06
1.21143e-06
1.21157e-06
1.21247e-06
1.2123e-06
1.2115e-06
1.21151e-06
1.21148e-06
1.21149e-06
1.21153e-06
1.2116e-06
1.21247e-06
1.21236e-06
1.21247e-06
1.21246e-06
1.21246e-06
1.21248e-06
1.20147e-06
1.20045e-06
1.20038e-06
1.20043e-06
1.20142e-06
1.2015e-06
1.20152e-06
1.20059e-06
1.20008e-06
1.19848e-06
1.19848e-06
1.19848e-06
1.20022e-06
1.20059e-06
1.20146e-06
1.20059e-06
1.20005e-06
1.19848e-06
1.19848e-06
1.19848e-06
1.19848e-06
1.19848e-06
1.20019e-06
1.20059e-06
1.20147e-06
1.20147e-06
1.20008e-06
1.19848e-06
1.19848e-06
1.19848e-06
1.19848e-06
1.19848e-06
1.19848e-06
1.19848e-06
1.20022e-06
1.20067e-06
1.20153e-06
1.20045e-06
1.19848e-06
1.19848e-06
1.19848e-06
1.19848e-06
1.19848e-06
1.19848e-06
1.19848e-06
1.19848e-06
1.19848e-06
1.20068e-06
1.20164e-06
1.20038e-06
1.19848e-06
1.19848e-06
1.19848e-06
1.19849e-06
1.19849e-06
1.19849e-06
1.19848e-06
1.19848e-06
1.19848e-06
1.20065e-06
1.20163e-06
1.20043e-06
1.19848e-06
1.19848e-06
1.19848e-06
1.19848e-06
1.19849e-06
1.19848e-06
1.19848e-06
1.19848e-06
1.19848e-06
1.20066e-06
1.20163e-06
1.20142e-06
1.20022e-06
1.19848e-06
1.19848e-06
1.19848e-06
1.19848e-06
1.19848e-06
1.19848e-06
1.19848e-06
1.20041e-06
1.2007e-06
1.20165e-06
1.2015e-06
1.20059e-06
1.20019e-06
1.19848e-06
1.19848e-06
1.19848e-06
1.19848e-06
1.19848e-06
1.20037e-06
1.2006e-06
1.20077e-06
1.20146e-06
1.20059e-06
1.20022e-06
1.19848e-06
1.19848e-06
1.19848e-06
1.20041e-06
1.2006e-06
1.20074e-06
1.20164e-06
1.20147e-06
1.20067e-06
1.20068e-06
1.20065e-06
1.20066e-06
1.2007e-06
1.20077e-06
1.20164e-06
1.20153e-06
1.20164e-06
1.20163e-06
1.20163e-06
1.20165e-06
1.19064e-06
1.18962e-06
1.18955e-06
1.1896e-06
1.19059e-06
1.19067e-06
1.19069e-06
1.18976e-06
1.18925e-06
1.18765e-06
1.18765e-06
1.18765e-06
1.18939e-06
1.18976e-06
1.19063e-06
1.18976e-06
1.18921e-06
1.18765e-06
1.18765e-06
1.18765e-06
1.18765e-06
1.18765e-06
1.18936e-06
1.18975e-06
1.19064e-06
1.19064e-06
1.18925e-06
1.18765e-06
1.18765e-06
1.18765e-06
1.18765e-06
1.18765e-06
1.18765e-06
1.18765e-06
1.18939e-06
1.18984e-06
1.1907e-06
1.18962e-06
1.18765e-06
1.18765e-06
1.18765e-06
1.18765e-06
1.18765e-06
1.18765e-06
1.18765e-06
1.18765e-06
1.18765e-06
1.18985e-06
1.19081e-06
1.18955e-06
1.18765e-06
1.18765e-06
1.18765e-06
1.18765e-06
1.18765e-06
1.18765e-06
1.18765e-06
1.18765e-06
1.18765e-06
1.18982e-06
1.1908e-06
1.1896e-06
1.18765e-06
1.18765e-06
1.18765e-06
1.18765e-06
1.18765e-06
1.18765e-06
1.18765e-06
1.18765e-06
1.18765e-06
1.18983e-06
1.1908e-06
1.19059e-06
1.18939e-06
1.18765e-06
1.18765e-06
1.18765e-06
1.18765e-06
1.18765e-06
1.18765e-06
1.18765e-06
1.18958e-06
1.18987e-06
1.19081e-06
1.19067e-06
1.18976e-06
1.18936e-06
1.18765e-06
1.18765e-06
1.18765e-06
1.18765e-06
1.18765e-06
1.18954e-06
1.18977e-06
1.18994e-06
1.19063e-06
1.18975e-06
1.18939e-06
1.18765e-06
1.18765e-06
1.18765e-06
1.18958e-06
1.18977e-06
1.18991e-06
1.1908e-06
1.19064e-06
1.18984e-06
1.18985e-06
1.18982e-06
1.18983e-06
1.18987e-06
1.18994e-06
1.1908e-06
1.1907e-06
1.19081e-06
1.1908e-06
1.1908e-06
1.19081e-06
1.17981e-06
1.17879e-06
1.17872e-06
1.17877e-06
1.17976e-06
1.17984e-06
1.17986e-06
1.17893e-06
1.17842e-06
1.17682e-06
1.17682e-06
1.17682e-06
1.17856e-06
1.17893e-06
1.1798e-06
1.17893e-06
1.17838e-06
1.17682e-06
1.17682e-06
1.17682e-06
1.17682e-06
1.17682e-06
1.17853e-06
1.17892e-06
1.17981e-06
1.17981e-06
1.17842e-06
1.17682e-06
1.17682e-06
1.17682e-06
1.17682e-06
1.17682e-06
1.17682e-06
1.17682e-06
1.17856e-06
1.17901e-06
1.17987e-06
1.17879e-06
1.17682e-06
1.17682e-06
1.17682e-06
1.17682e-06
1.17682e-06
1.17682e-06
1.17682e-06
1.17682e-06
1.17682e-06
1.17902e-06
1.17997e-06
1.17872e-06
1.17682e-06
1.17682e-06
1.17682e-06
1.17682e-06
1.17682e-06
1.17682e-06
1.17682e-06
1.17682e-06
1.17682e-06
1.17899e-06
1.17997e-06
1.17877e-06
1.17682e-06
1.17682e-06
1.17682e-06
1.17682e-06
1.17682e-06
1.17682e-06
1.17682e-06
1.17682e-06
1.17682e-06
1.179e-06
1.17997e-06
1.17976e-06
1.17856e-06
1.17682e-06
1.17682e-06
1.17682e-06
1.17682e-06
1.17682e-06
1.17682e-06
1.17682e-06
1.17874e-06
1.17904e-06
1.17998e-06
1.17984e-06
1.17893e-06
1.17853e-06
1.17682e-06
1.17682e-06
1.17682e-06
1.17682e-06
1.17682e-06
1.17871e-06
1.17894e-06
1.17911e-06
1.1798e-06
1.17892e-06
1.17856e-06
1.17682e-06
1.17682e-06
1.17682e-06
1.17874e-06
1.17894e-06
1.17908e-06
1.17997e-06
1.17981e-06
1.17901e-06
1.17902e-06
1.17899e-06
1.179e-06
1.17904e-06
1.17911e-06
1.17997e-06
1.17987e-06
1.17997e-06
1.17997e-06
1.17997e-06
1.17998e-06
1.16898e-06
1.16796e-06
1.16788e-06
1.16793e-06
1.16893e-06
1.16901e-06
1.16903e-06
1.1681e-06
1.16759e-06
1.16598e-06
1.16598e-06
1.16598e-06
1.16773e-06
1.1681e-06
1.16897e-06
1.1681e-06
1.16755e-06
1.16598e-06
1.16599e-06
1.16599e-06
1.16599e-06
1.16598e-06
1.1677e-06
1.16809e-06
1.16897e-06
1.16898e-06
1.16759e-06
1.16598e-06
1.16599e-06
1.16599e-06
1.16599e-06
1.16599e-06
1.16599e-06
1.16598e-06
1.16773e-06
1.16818e-06
1.16904e-06
1.16796e-06
1.16598e-06
1.16599e-06
1.16599e-06
1.16599e-06
1.16599e-06
1.16599e-06
1.16599e-06
1.16599e-06
1.16598e-06
1.16819e-06
1.16914e-06
1.16788e-06
1.16598e-06
1.16599e-06
1.16599e-06
1.16599e-06
1.16599e-06
1.16599e-06
1.16599e-06
1.16599e-06
1.16598e-06
1.16816e-06
1.16914e-06
1.16793e-06
1.16598e-06
1.16599e-06
1.16599e-06
1.16599e-06
1.16599e-06
1.16599e-06
1.16599e-06
1.16599e-06
1.16598e-06
1.16817e-06
1.16914e-06
1.16893e-06
1.16773e-06
1.16598e-06
1.16599e-06
1.16599e-06
1.16599e-06
1.16599e-06
1.16599e-06
1.16598e-06
1.16791e-06
1.16821e-06
1.16915e-06
1.16901e-06
1.1681e-06
1.1677e-06
1.16598e-06
1.16599e-06
1.16599e-06
1.16599e-06
1.16598e-06
1.16788e-06
1.16811e-06
1.16828e-06
1.16897e-06
1.16809e-06
1.16773e-06
1.16598e-06
1.16598e-06
1.16598e-06
1.16791e-06
1.16811e-06
1.16825e-06
1.16914e-06
1.16897e-06
1.16818e-06
1.16819e-06
1.16816e-06
1.16817e-06
1.16821e-06
1.16828e-06
1.16914e-06
1.16904e-06
1.16914e-06
1.16914e-06
1.16914e-06
1.16915e-06
1.15815e-06
1.15713e-06
1.15705e-06
1.1571e-06
1.1581e-06
1.15818e-06
1.15819e-06
1.15727e-06
1.15676e-06
1.15515e-06
1.15515e-06
1.15515e-06
1.1569e-06
1.15727e-06
1.15814e-06
1.15727e-06
1.15672e-06
1.15515e-06
1.15516e-06
1.15515e-06
1.15516e-06
1.15515e-06
1.15687e-06
1.15726e-06
1.15814e-06
1.15815e-06
1.15676e-06
1.15515e-06
1.15515e-06
1.15515e-06
1.15515e-06
1.15515e-06
1.15515e-06
1.15515e-06
1.15689e-06
1.15735e-06
1.15821e-06
1.15713e-06
1.15515e-06
1.15516e-06
1.15515e-06
1.15516e-06
1.15516e-06
1.15516e-06
1.15515e-06
1.15516e-06
1.15515e-06
1.15736e-06
1.15831e-06
1.15705e-06
1.15515e-06
1.15515e-06
1.15515e-06
1.15516e-06
1.15516e-06
1.15516e-06
1.15516e-06
1.15515e-06
1.15515e-06
1.15733e-06
1.15831e-06
1.1571e-06
1.15515e-06
1.15516e-06
1.15515e-06
1.15516e-06
1.15516e-06
1.15516e-06
1.15515e-06
1.15515e-06
1.15515e-06
1.15734e-06
1.15831e-06
1.1581e-06
1.1569e-06
1.15515e-06
1.15515e-06
1.15515e-06
1.15515e-06
1.15515e-06
1.15515e-06
1.15515e-06
1.15708e-06
1.15737e-06
1.15832e-06
1.15818e-06
1.15727e-06
1.15687e-06
1.15515e-06
1.15516e-06
1.15515e-06
1.15516e-06
1.15515e-06
1.15705e-06
1.15728e-06
1.15745e-06
1.15814e-06
1.15726e-06
1.15689e-06
1.15515e-06
1.15515e-06
1.15515e-06
1.15708e-06
1.15728e-06
1.15742e-06
1.15831e-06
1.15814e-06
1.15735e-06
1.15736e-06
1.15733e-06
1.15734e-06
1.15737e-06
1.15745e-06
1.15831e-06
1.15821e-06
1.15831e-06
1.15831e-06
1.15831e-06
1.15832e-06
1.14732e-06
1.1463e-06
1.14622e-06
1.14627e-06
1.14727e-06
1.14735e-06
1.14736e-06
1.14644e-06
1.14592e-06
1.14432e-06
1.14432e-06
1.14432e-06
1.14607e-06
1.14644e-06
1.14731e-06
1.14644e-06
1.14589e-06
1.14432e-06
1.14432e-06
1.14432e-06
1.14432e-06
1.14432e-06
1.14604e-06
1.14643e-06
1.14731e-06
1.14732e-06
1.14592e-06
1.14432e-06
1.14432e-06
1.14432e-06
1.14432e-06
1.14432e-06
1.14432e-06
1.14432e-06
1.14606e-06
1.14652e-06
1.14738e-06
1.1463e-06
1.14432e-06
1.14432e-06
1.14432e-06
1.14432e-06
1.14432e-06
1.14432e-06
1.14432e-06
1.14432e-06
1.14432e-06
1.14652e-06
1.14748e-06
1.14622e-06
1.14432e-06
1.14432e-06
1.14432e-06
1.14432e-06
1.14432e-06
1.14432e-06
1.14432e-06
1.14432e-06
1.14432e-06
1.1465e-06
1.14747e-06
1.14627e-06
1.14432e-06
1.14432e-06
1.14432e-06
1.14432e-06
1.14432e-06
1.14432e-06
1.14432e-06
1.14432e-06
1.14432e-06
1.14651e-06
1.14748e-06
1.14727e-06
1.14607e-06
1.14432e-06
1.14432e-06
1.14432e-06
1.14432e-06
1.14432e-06
1.14432e-06
1.14432e-06
1.14625e-06
1.14654e-06
1.14749e-06
1.14735e-06
1.14644e-06
1.14604e-06
1.14432e-06
1.14432e-06
1.14432e-06
1.14432e-06
1.14432e-06
1.14622e-06
1.14645e-06
1.14662e-06
1.14731e-06
1.14643e-06
1.14606e-06
1.14432e-06
1.14432e-06
1.14432e-06
1.14625e-06
1.14645e-06
1.14659e-06
1.14748e-06
1.14731e-06
1.14652e-06
1.14652e-06
1.1465e-06
1.14651e-06
1.14654e-06
1.14662e-06
1.14748e-06
1.14738e-06
1.14748e-06
1.14747e-06
1.14748e-06
1.14749e-06
1.13649e-06
1.13547e-06
1.13539e-06
1.13544e-06
1.13644e-06
1.13652e-06
1.13653e-06
1.13561e-06
1.13509e-06
1.13349e-06
1.13349e-06
1.13349e-06
1.13524e-06
1.13561e-06
1.13648e-06
1.13561e-06
1.13506e-06
1.13349e-06
1.13349e-06
1.13349e-06
1.13349e-06
1.13349e-06
1.13521e-06
1.1356e-06
1.13648e-06
1.13649e-06
1.13509e-06
1.13349e-06
1.13349e-06
1.13349e-06
1.13349e-06
1.13349e-06
1.13349e-06
1.13349e-06
1.13523e-06
1.13569e-06
1.13655e-06
1.13547e-06
1.13349e-06
1.13349e-06
1.13349e-06
1.13349e-06
1.13349e-06
1.13349e-06
1.13349e-06
1.13349e-06
1.13349e-06
1.13569e-06
1.13665e-06
1.13539e-06
1.13349e-06
1.13349e-06
1.13349e-06
1.13349e-06
1.13349e-06
1.13349e-06
1.13349e-06
1.13349e-06
1.13349e-06
1.13567e-06
1.13664e-06
1.13544e-06
1.13349e-06
1.13349e-06
1.13349e-06
1.13349e-06
1.13349e-06
1.13349e-06
1.13349e-06
1.13349e-06
1.13349e-06
1.13568e-06
1.13665e-06
1.13644e-06
1.13524e-06
1.13349e-06
1.13349e-06
1.13349e-06
1.13349e-06
1.13349e-06
1.13349e-06
1.13349e-06
1.13542e-06
1.13571e-06
1.13666e-06
1.13652e-06
1.13561e-06
1.13521e-06
1.13349e-06
1.13349e-06
1.13349e-06
1.13349e-06
1.13349e-06
1.13539e-06
1.13562e-06
1.13579e-06
1.13648e-06
1.1356e-06
1.13523e-06
1.13349e-06
1.13349e-06
1.13349e-06
1.13542e-06
1.13562e-06
1.13576e-06
1.13665e-06
1.13648e-06
1.13569e-06
1.13569e-06
1.13567e-06
1.13568e-06
1.13571e-06
1.13579e-06
1.13665e-06
1.13655e-06
1.13665e-06
1.13664e-06
1.13665e-06
1.13666e-06
1.12566e-06
1.12464e-06
1.12456e-06
1.12461e-06
1.12561e-06
1.12569e-06
1.1257e-06
1.12478e-06
1.12426e-06
1.12266e-06
1.12266e-06
1.12266e-06
1.1244e-06
1.12478e-06
1.12565e-06
1.12478e-06
1.12423e-06
1.12266e-06
1.12266e-06
1.12266e-06
1.12266e-06
1.12266e-06
1.12438e-06
1.12477e-06
1.12565e-06
1.12566e-06
1.12426e-06
1.12266e-06
1.12266e-06
1.12266e-06
1.12266e-06
1.12266e-06
1.12266e-06
1.12266e-06
1.1244e-06
1.12486e-06
1.12572e-06
1.12464e-06
1.12266e-06
1.12266e-06
1.12266e-06
1.12266e-06
1.12266e-06
1.12266e-06
1.12266e-06
1.12266e-06
1.12266e-06
1.12486e-06
1.12582e-06
1.12456e-06
1.12266e-06
1.12266e-06
1.12266e-06
1.12266e-06
1.12266e-06
1.12266e-06
1.12266e-06
1.12266e-06
1.12266e-06
1.12484e-06
1.12581e-06
1.12461e-06
1.12266e-06
1.12266e-06
1.12266e-06
1.12266e-06
1.12266e-06
1.12266e-06
1.12266e-06
1.12266e-06
1.12266e-06
1.12485e-06
1.12582e-06
1.12561e-06
1.1244e-06
1.12266e-06
1.12266e-06
1.12266e-06
1.12266e-06
1.12266e-06
1.12266e-06
1.12266e-06
1.12459e-06
1.12488e-06
1.12583e-06
1.12569e-06
1.12478e-06
1.12438e-06
1.12266e-06
1.12266e-06
1.12266e-06
1.12266e-06
1.12266e-06
1.12456e-06
1.12479e-06
1.12496e-06
1.12565e-06
1.12477e-06
1.1244e-06
1.12266e-06
1.12266e-06
1.12266e-06
1.12459e-06
1.12479e-06
1.12493e-06
1.12582e-06
1.12565e-06
1.12486e-06
1.12486e-06
1.12484e-06
1.12485e-06
1.12488e-06
1.12496e-06
1.12582e-06
1.12572e-06
1.12582e-06
1.12581e-06
1.12582e-06
1.12583e-06
1.11483e-06
1.11381e-06
1.11373e-06
1.11378e-06
1.11478e-06
1.11486e-06
1.11487e-06
1.11395e-06
1.11343e-06
1.11183e-06
1.11183e-06
1.11183e-06
1.11357e-06
1.11394e-06
1.11482e-06
1.11395e-06
1.1134e-06
1.11183e-06
1.11183e-06
1.11183e-06
1.11183e-06
1.11183e-06
1.11355e-06
1.11394e-06
1.11482e-06
1.11483e-06
1.11343e-06
1.11183e-06
1.11183e-06
1.11183e-06
1.11183e-06
1.11183e-06
1.11183e-06
1.11183e-06
1.11357e-06
1.11403e-06
1.11489e-06
1.11381e-06
1.11183e-06
1.11183e-06
1.11183e-06
1.11183e-06
1.11183e-06
1.11183e-06
1.11183e-06
1.11183e-06
1.11183e-06
1.11403e-06
1.11499e-06
1.11373e-06
1.11183e-06
1.11183e-06
1.11183e-06
1.11183e-06
1.11183e-06
1.11183e-06
1.11183e-06
1.11183e-06
1.11183e-06
1.11401e-06
1.11498e-06
1.11378e-06
1.11183e-06
1.11183e-06
1.11183e-06
1.11183e-06
1.11183e-06
1.11183e-06
1.11183e-06
1.11183e-06
1.11183e-06
1.11402e-06
1.11499e-06
1.11478e-06
1.11357e-06
1.11183e-06
1.11183e-06
1.11183e-06
1.11183e-06
1.11183e-06
1.11183e-06
1.11183e-06
1.11376e-06
1.11405e-06
1.115e-06
1.11486e-06
1.11394e-06
1.11355e-06
1.11183e-06
1.11183e-06
1.11183e-06
1.11183e-06
1.11183e-06
1.11373e-06
1.11396e-06
1.11413e-06
1.11482e-06
1.11394e-06
1.11357e-06
1.11183e-06
1.11183e-06
1.11183e-06
1.11376e-06
1.11396e-06
1.1141e-06
1.11499e-06
1.11482e-06
1.11403e-06
1.11403e-06
1.11401e-06
1.11402e-06
1.11405e-06
1.11413e-06
1.11499e-06
1.11489e-06
1.11499e-06
1.11498e-06
1.11499e-06
1.115e-06
1.104e-06
1.10298e-06
1.1029e-06
1.10295e-06
1.10395e-06
1.10403e-06
1.10404e-06
1.10312e-06
1.1026e-06
1.101e-06
1.101e-06
1.101e-06
1.10274e-06
1.10311e-06
1.10399e-06
1.10312e-06
1.10257e-06
1.101e-06
1.101e-06
1.101e-06
1.101e-06
1.101e-06
1.10272e-06
1.10311e-06
1.10399e-06
1.104e-06
1.1026e-06
1.101e-06
1.101e-06
1.101e-06
1.101e-06
1.101e-06
1.101e-06
1.101e-06
1.10274e-06
1.1032e-06
1.10406e-06
1.10298e-06
1.101e-06
1.101e-06
1.101e-06
1.101e-06
1.101e-06
1.101e-06
1.101e-06
1.101e-06
1.101e-06
1.1032e-06
1.10416e-06
1.1029e-06
1.101e-06
1.101e-06
1.101e-06
1.101e-06
1.101e-06
1.101e-06
1.101e-06
1.101e-06
1.101e-06
1.10318e-06
1.10415e-06
1.10295e-06
1.101e-06
1.101e-06
1.101e-06
1.101e-06
1.101e-06
1.101e-06
1.101e-06
1.101e-06
1.101e-06
1.10319e-06
1.10415e-06
1.10395e-06
1.10274e-06
1.101e-06
1.101e-06
1.101e-06
1.101e-06
1.101e-06
1.101e-06
1.101e-06
1.10293e-06
1.10322e-06
1.10417e-06
1.10403e-06
1.10311e-06
1.10272e-06
1.101e-06
1.101e-06
1.101e-06
1.101e-06
1.101e-06
1.1029e-06
1.10313e-06
1.1033e-06
1.10399e-06
1.10311e-06
1.10274e-06
1.101e-06
1.101e-06
1.101e-06
1.10293e-06
1.10313e-06
1.10327e-06
1.10416e-06
1.10399e-06
1.1032e-06
1.1032e-06
1.10318e-06
1.10319e-06
1.10322e-06
1.1033e-06
1.10416e-06
1.10406e-06
1.10416e-06
1.10415e-06
1.10415e-06
1.10417e-06
1.09317e-06
1.09215e-06
1.09207e-06
1.09212e-06
1.09312e-06
1.0932e-06
1.09321e-06
1.09229e-06
1.09177e-06
1.09017e-06
1.09017e-06
1.09017e-06
1.09191e-06
1.09228e-06
1.09316e-06
1.09229e-06
1.09174e-06
1.09017e-06
1.09017e-06
1.09017e-06
1.09017e-06
1.09017e-06
1.09189e-06
1.09228e-06
1.09316e-06
1.09317e-06
1.09177e-06
1.09017e-06
1.09017e-06
1.09017e-06
1.09017e-06
1.09017e-06
1.09017e-06
1.09017e-06
1.09191e-06
1.09237e-06
1.09323e-06
1.09215e-06
1.09017e-06
1.09017e-06
1.09017e-06
1.09017e-06
1.09017e-06
1.09017e-06
1.09017e-06
1.09017e-06
1.09017e-06
1.09237e-06
1.09333e-06
1.09207e-06
1.09017e-06
1.09017e-06
1.09017e-06
1.09017e-06
1.09017e-06
1.09017e-06
1.09017e-06
1.09017e-06
1.09017e-06
1.09235e-06
1.09332e-06
1.09212e-06
1.09017e-06
1.09017e-06
1.09017e-06
1.09017e-06
1.09017e-06
1.09017e-06
1.09017e-06
1.09017e-06
1.09017e-06
1.09236e-06
1.09332e-06
1.09312e-06
1.09191e-06
1.09017e-06
1.09017e-06
1.09017e-06
1.09017e-06
1.09017e-06
1.09017e-06
1.09017e-06
1.0921e-06
1.09239e-06
1.09334e-06
1.0932e-06
1.09228e-06
1.09189e-06
1.09017e-06
1.09017e-06
1.09017e-06
1.09017e-06
1.09017e-06
1.09206e-06
1.0923e-06
1.09247e-06
1.09316e-06
1.09228e-06
1.09191e-06
1.09017e-06
1.09017e-06
1.09017e-06
1.0921e-06
1.0923e-06
1.09244e-06
1.09333e-06
1.09316e-06
1.09237e-06
1.09237e-06
1.09235e-06
1.09236e-06
1.09239e-06
1.09246e-06
1.09333e-06
1.09323e-06
1.09333e-06
1.09332e-06
1.09332e-06
1.09334e-06
1.08234e-06
1.08132e-06
1.08124e-06
1.08129e-06
1.08229e-06
1.08237e-06
1.08238e-06
1.08146e-06
1.08094e-06
1.07934e-06
1.07934e-06
1.07934e-06
1.08108e-06
1.08145e-06
1.08233e-06
1.08146e-06
1.08091e-06
1.07934e-06
1.07934e-06
1.07934e-06
1.07934e-06
1.07934e-06
1.08106e-06
1.08145e-06
1.08233e-06
1.08234e-06
1.08094e-06
1.07934e-06
1.07934e-06
1.07934e-06
1.07934e-06
1.07934e-06
1.07934e-06
1.07934e-06
1.08108e-06
1.08153e-06
1.0824e-06
1.08132e-06
1.07934e-06
1.07934e-06
1.07934e-06
1.07934e-06
1.07934e-06
1.07934e-06
1.07934e-06
1.07934e-06
1.07934e-06
1.08154e-06
1.0825e-06
1.08124e-06
1.07934e-06
1.07934e-06
1.07934e-06
1.07934e-06
1.07934e-06
1.07934e-06
1.07934e-06
1.07934e-06
1.07934e-06
1.08152e-06
1.08249e-06
1.08129e-06
1.07934e-06
1.07934e-06
1.07934e-06
1.07934e-06
1.07934e-06
1.07934e-06
1.07934e-06
1.07934e-06
1.07934e-06
1.08153e-06
1.08249e-06
1.08229e-06
1.08108e-06
1.07934e-06
1.07934e-06
1.07934e-06
1.07934e-06
1.07934e-06
1.07934e-06
1.07934e-06
1.08127e-06
1.08156e-06
1.08251e-06
1.08237e-06
1.08145e-06
1.08106e-06
1.07934e-06
1.07934e-06
1.07934e-06
1.07934e-06
1.07934e-06
1.08123e-06
1.08147e-06
1.08163e-06
1.08233e-06
1.08145e-06
1.08108e-06
1.07934e-06
1.07934e-06
1.07934e-06
1.08127e-06
1.08147e-06
1.08161e-06
1.0825e-06
1.08233e-06
1.08153e-06
1.08154e-06
1.08152e-06
1.08153e-06
1.08156e-06
1.08163e-06
1.0825e-06
1.0824e-06
1.0825e-06
1.08249e-06
1.08249e-06
1.08251e-06
1.07151e-06
1.07049e-06
1.07041e-06
1.07046e-06
1.07146e-06
1.07154e-06
1.07155e-06
1.07063e-06
1.07011e-06
1.06851e-06
1.06851e-06
1.06851e-06
1.07025e-06
1.07062e-06
1.0715e-06
1.07063e-06
1.07008e-06
1.06851e-06
1.06851e-06
1.06851e-06
1.06851e-06
1.06851e-06
1.07023e-06
1.07062e-06
1.0715e-06
1.07151e-06
1.07011e-06
1.06851e-06
1.06851e-06
1.06851e-06
1.06851e-06
1.06851e-06
1.06851e-06
1.06851e-06
1.07025e-06
1.0707e-06
1.07157e-06
1.07049e-06
1.06851e-06
1.06851e-06
1.06851e-06
1.06851e-06
1.06851e-06
1.06851e-06
1.06851e-06
1.06851e-06
1.06851e-06
1.07071e-06
1.07167e-06
1.07041e-06
1.06851e-06
1.06851e-06
1.06851e-06
1.06851e-06
1.06851e-06
1.06851e-06
1.06851e-06
1.06851e-06
1.06851e-06
1.07069e-06
1.07166e-06
1.07046e-06
1.06851e-06
1.06851e-06
1.06851e-06
1.06851e-06
1.06851e-06
1.06851e-06
1.06851e-06
1.06851e-06
1.06851e-06