/*--------------------------------*- C++ -*----------------------------------*\
| =========                 |                                                 |
| \\      /  F ield         | OpenFOAM: The Open Source CFD Toolbox           |
|  \\    /   O peration     | Version:  v2012                                 |
|   \\  /    A nd           | Website:  www.openfoam.com                      |
|    \\/     M anipulation  |                                                 |
\*---------------------------------------------------------------------------*/
FoamFile
{
    version     2.0;
    format      ascii;
    class       volScalarField;
    location    "37";
    object      p;
}
// * * * * * * * * * * * * * * * * * * * * * * * * * * * * * * * * * * * * * //

dimensions      [0 2 -2 0 0 0 0];


internalField   nonuniform List<scalar> 
292667
(
1.32972e-06
1.31967e-06
1.31882e-06
1.3189e-06
1.32008e-06
1.33067e-06
1.31988e-06
1.31689e-06
1.31515e-06
1.31444e-06
1.31454e-06
1.31547e-06
1.31747e-06
1.32076e-06
1.31988e-06
1.31601e-06
1.31362e-06
1.31232e-06
1.31177e-06
1.31184e-06
1.31255e-06
1.31408e-06
1.31678e-06
1.32102e-06
1.32972e-06
1.31689e-06
1.31362e-06
1.3117e-06
1.31063e-06
1.31016e-06
1.31023e-06
1.31083e-06
1.31208e-06
1.31427e-06
1.31794e-06
1.32957e-06
1.31967e-06
1.31515e-06
1.31232e-06
1.31063e-06
1.30967e-06
1.30925e-06
1.30931e-06
1.30985e-06
1.31096e-06
1.31289e-06
1.31611e-06
1.32372e-06
1.31882e-06
1.31444e-06
1.31177e-06
1.31016e-06
1.30925e-06
1.30885e-06
1.30891e-06
1.30942e-06
1.31049e-06
1.31231e-06
1.31536e-06
1.32186e-06
1.3189e-06
1.31454e-06
1.31184e-06
1.31023e-06
1.30931e-06
1.30891e-06
1.30896e-06
1.30948e-06
1.31055e-06
1.31239e-06
1.31547e-06
1.3222e-06
1.32008e-06
1.31547e-06
1.31255e-06
1.31083e-06
1.30985e-06
1.30942e-06
1.30948e-06
1.31004e-06
1.31118e-06
1.31315e-06
1.31647e-06
1.32406e-06
1.33067e-06
1.31747e-06
1.31408e-06
1.31208e-06
1.31096e-06
1.31049e-06
1.31055e-06
1.31118e-06
1.31248e-06
1.31477e-06
1.31858e-06
1.32956e-06
1.32076e-06
1.31678e-06
1.31427e-06
1.31289e-06
1.31231e-06
1.31239e-06
1.31315e-06
1.31477e-06
1.31764e-06
1.32463e-06
1.32102e-06
1.31794e-06
1.31611e-06
1.31536e-06
1.31547e-06
1.31647e-06
1.31858e-06
1.32463e-06
1.32957e-06
1.32372e-06
1.32186e-06
1.3222e-06
1.32406e-06
1.32956e-06
1.30073e-06
1.29966e-06
1.29963e-06
1.29967e-06
1.30064e-06
1.30058e-06
1.3008e-06
1.29995e-06
1.29953e-06
1.29789e-06
1.29787e-06
1.29789e-06
1.29967e-06
1.29995e-06
1.30077e-06
1.29995e-06
1.29954e-06
1.29794e-06
1.29787e-06
1.29792e-06
1.29787e-06
1.29794e-06
1.29964e-06
1.29992e-06
1.30074e-06
1.30073e-06
1.29953e-06
1.29794e-06
1.29787e-06
1.29791e-06
1.2979e-06
1.29791e-06
1.29787e-06
1.29794e-06
1.29963e-06
1.29994e-06
1.30083e-06
1.29966e-06
1.29789e-06
1.29787e-06
1.29791e-06
1.29788e-06
1.29788e-06
1.29788e-06
1.29791e-06
1.29787e-06
1.29789e-06
1.30005e-06
1.30092e-06
1.29964e-06
1.29787e-06
1.29792e-06
1.2979e-06
1.29788e-06
1.29787e-06
1.29788e-06
1.2979e-06
1.29792e-06
1.29787e-06
1.30004e-06
1.30077e-06
1.29967e-06
1.29789e-06
1.29787e-06
1.29791e-06
1.29788e-06
1.29788e-06
1.29788e-06
1.29791e-06
1.29787e-06
1.29789e-06
1.30006e-06
1.30081e-06
1.30064e-06
1.29967e-06
1.29794e-06
1.29787e-06
1.29791e-06
1.2979e-06
1.29791e-06
1.29787e-06
1.29794e-06
1.29976e-06
1.29997e-06
1.3009e-06
1.30058e-06
1.29995e-06
1.29964e-06
1.29794e-06
1.29787e-06
1.29792e-06
1.29787e-06
1.29794e-06
1.29973e-06
1.29993e-06
1.29999e-06
1.30077e-06
1.29992e-06
1.29963e-06
1.29789e-06
1.29787e-06
1.29789e-06
1.29976e-06
1.29993e-06
1.30006e-06
1.30089e-06
1.30074e-06
1.29994e-06
1.30005e-06
1.30004e-06
1.30006e-06
1.29997e-06
1.29999e-06
1.30089e-06
1.30083e-06
1.30092e-06
1.30077e-06
1.30081e-06
1.3009e-06
1.28964e-06
1.28861e-06
1.28854e-06
1.28859e-06
1.28959e-06
1.28966e-06
1.28969e-06
1.28877e-06
1.28829e-06
1.28668e-06
1.28667e-06
1.28668e-06
1.28843e-06
1.28878e-06
1.28963e-06
1.28877e-06
1.28828e-06
1.28673e-06
1.28673e-06
1.28677e-06
1.28673e-06
1.28673e-06
1.28843e-06
1.28877e-06
1.28963e-06
1.28964e-06
1.28829e-06
1.28673e-06
1.28674e-06
1.28681e-06
1.28681e-06
1.28681e-06
1.28674e-06
1.28673e-06
1.28843e-06
1.28883e-06
1.2897e-06
1.28861e-06
1.28668e-06
1.28673e-06
1.28681e-06
1.28682e-06
1.28684e-06
1.28682e-06
1.28681e-06
1.28673e-06
1.28668e-06
1.28885e-06
1.2898e-06
1.28854e-06
1.28667e-06
1.28677e-06
1.28681e-06
1.28684e-06
1.28685e-06
1.28684e-06
1.28681e-06
1.28677e-06
1.28667e-06
1.28884e-06
1.28979e-06
1.28859e-06
1.28668e-06
1.28673e-06
1.28681e-06
1.28682e-06
1.28684e-06
1.28682e-06
1.28681e-06
1.28673e-06
1.28668e-06
1.28884e-06
1.28979e-06
1.28959e-06
1.28843e-06
1.28673e-06
1.28674e-06
1.28681e-06
1.28681e-06
1.28681e-06
1.28674e-06
1.28673e-06
1.2886e-06
1.28885e-06
1.28981e-06
1.28966e-06
1.28878e-06
1.28843e-06
1.28673e-06
1.28673e-06
1.28677e-06
1.28673e-06
1.28673e-06
1.28857e-06
1.28877e-06
1.28891e-06
1.28963e-06
1.28877e-06
1.28843e-06
1.28668e-06
1.28667e-06
1.28668e-06
1.2886e-06
1.28877e-06
1.28889e-06
1.2898e-06
1.28963e-06
1.28883e-06
1.28885e-06
1.28884e-06
1.28884e-06
1.28885e-06
1.28891e-06
1.2898e-06
1.2897e-06
1.2898e-06
1.28979e-06
1.28979e-06
1.28981e-06
1.27862e-06
1.27758e-06
1.27751e-06
1.27755e-06
1.27857e-06
1.27865e-06
1.27867e-06
1.27773e-06
1.27722e-06
1.2756e-06
1.27559e-06
1.2756e-06
1.27736e-06
1.27773e-06
1.27861e-06
1.27773e-06
1.2772e-06
1.27562e-06
1.27563e-06
1.27566e-06
1.27563e-06
1.27562e-06
1.27735e-06
1.27772e-06
1.27861e-06
1.27862e-06
1.27722e-06
1.27563e-06
1.27565e-06
1.27569e-06
1.27569e-06
1.27569e-06
1.27565e-06
1.27562e-06
1.27736e-06
1.2778e-06
1.27868e-06
1.27758e-06
1.2756e-06
1.27563e-06
1.27569e-06
1.27571e-06
1.27572e-06
1.27571e-06
1.27569e-06
1.27563e-06
1.2756e-06
1.2778e-06
1.27878e-06
1.27751e-06
1.27559e-06
1.27566e-06
1.27569e-06
1.27572e-06
1.27573e-06
1.27572e-06
1.27569e-06
1.27566e-06
1.27559e-06
1.27779e-06
1.27877e-06
1.27755e-06
1.2756e-06
1.27563e-06
1.27569e-06
1.27571e-06
1.27572e-06
1.27571e-06
1.27569e-06
1.27563e-06
1.2756e-06
1.27779e-06
1.27877e-06
1.27857e-06
1.27736e-06
1.27562e-06
1.27565e-06
1.27569e-06
1.27569e-06
1.27569e-06
1.27565e-06
1.27562e-06
1.27754e-06
1.27782e-06
1.27879e-06
1.27865e-06
1.27773e-06
1.27735e-06
1.27563e-06
1.27563e-06
1.27566e-06
1.27563e-06
1.27563e-06
1.27751e-06
1.27773e-06
1.27789e-06
1.27861e-06
1.27772e-06
1.27736e-06
1.2756e-06
1.27559e-06
1.2756e-06
1.27754e-06
1.27773e-06
1.27786e-06
1.27878e-06
1.27861e-06
1.2778e-06
1.2778e-06
1.27779e-06
1.2778e-06
1.27782e-06
1.27789e-06
1.27878e-06
1.27868e-06
1.27878e-06
1.27877e-06
1.27877e-06
1.27879e-06
1.2676e-06
1.26655e-06
1.26648e-06
1.26653e-06
1.26755e-06
1.26763e-06
1.26764e-06
1.2667e-06
1.26618e-06
1.26455e-06
1.26455e-06
1.26455e-06
1.26632e-06
1.26669e-06
1.26758e-06
1.2667e-06
1.26615e-06
1.26456e-06
1.26457e-06
1.26458e-06
1.26457e-06
1.26456e-06
1.2663e-06
1.26669e-06
1.26759e-06
1.2676e-06
1.26618e-06
1.26456e-06
1.26458e-06
1.2646e-06
1.2646e-06
1.2646e-06
1.26458e-06
1.26456e-06
1.26632e-06
1.26677e-06
1.26766e-06
1.26655e-06
1.26455e-06
1.26457e-06
1.2646e-06
1.26462e-06
1.26463e-06
1.26462e-06
1.2646e-06
1.26457e-06
1.26455e-06
1.26677e-06
1.26776e-06
1.26648e-06
1.26455e-06
1.26458e-06
1.26461e-06
1.26463e-06
1.26463e-06
1.26463e-06
1.26461e-06
1.26458e-06
1.26455e-06
1.26675e-06
1.26775e-06
1.26653e-06
1.26455e-06
1.26457e-06
1.2646e-06
1.26462e-06
1.26463e-06
1.26462e-06
1.2646e-06
1.26457e-06
1.26455e-06
1.26676e-06
1.26775e-06
1.26755e-06
1.26632e-06
1.26456e-06
1.26458e-06
1.2646e-06
1.26461e-06
1.2646e-06
1.26458e-06
1.26456e-06
1.2665e-06
1.26679e-06
1.26777e-06
1.26763e-06
1.26669e-06
1.2663e-06
1.26456e-06
1.26457e-06
1.26458e-06
1.26457e-06
1.26456e-06
1.26647e-06
1.2667e-06
1.26687e-06
1.26758e-06
1.26669e-06
1.26632e-06
1.26455e-06
1.26455e-06
1.26455e-06
1.2665e-06
1.2667e-06
1.26684e-06
1.26776e-06
1.26759e-06
1.26677e-06
1.26677e-06
1.26675e-06
1.26676e-06
1.26679e-06
1.26687e-06
1.26776e-06
1.26766e-06
1.26776e-06
1.26775e-06
1.26775e-06
1.26777e-06
1.25657e-06
1.25552e-06
1.25545e-06
1.2555e-06
1.25652e-06
1.2566e-06
1.25662e-06
1.25567e-06
1.25515e-06
1.25351e-06
1.25351e-06
1.25351e-06
1.25529e-06
1.25566e-06
1.25656e-06
1.25567e-06
1.25512e-06
1.25352e-06
1.25352e-06
1.25353e-06
1.25352e-06
1.25352e-06
1.25526e-06
1.25566e-06
1.25656e-06
1.25657e-06
1.25515e-06
1.25352e-06
1.25353e-06
1.25354e-06
1.25354e-06
1.25354e-06
1.25353e-06
1.25352e-06
1.25529e-06
1.25574e-06
1.25663e-06
1.25552e-06
1.25351e-06
1.25352e-06
1.25354e-06
1.25355e-06
1.25356e-06
1.25355e-06
1.25354e-06
1.25352e-06
1.25351e-06
1.25575e-06
1.25673e-06
1.25545e-06
1.25351e-06
1.25353e-06
1.25354e-06
1.25356e-06
1.25356e-06
1.25356e-06
1.25354e-06
1.25353e-06
1.25351e-06
1.25572e-06
1.25672e-06
1.2555e-06
1.25351e-06
1.25352e-06
1.25354e-06
1.25355e-06
1.25356e-06
1.25355e-06
1.25354e-06
1.25352e-06
1.25351e-06
1.25573e-06
1.25672e-06
1.25652e-06
1.25529e-06
1.25352e-06
1.25353e-06
1.25354e-06
1.25354e-06
1.25354e-06
1.25353e-06
1.25352e-06
1.25547e-06
1.25577e-06
1.25674e-06
1.2566e-06
1.25566e-06
1.25526e-06
1.25352e-06
1.25352e-06
1.25353e-06
1.25352e-06
1.25352e-06
1.25544e-06
1.25567e-06
1.25584e-06
1.25656e-06
1.25566e-06
1.25529e-06
1.25351e-06
1.25351e-06
1.25351e-06
1.25547e-06
1.25567e-06
1.25582e-06
1.25673e-06
1.25656e-06
1.25574e-06
1.25575e-06
1.25572e-06
1.25573e-06
1.25577e-06
1.25584e-06
1.25673e-06
1.25663e-06
1.25673e-06
1.25672e-06
1.25672e-06
1.25674e-06
1.24555e-06
1.2445e-06
1.24442e-06
1.24447e-06
1.24549e-06
1.24557e-06
1.24559e-06
1.24464e-06
1.24412e-06
1.24248e-06
1.24248e-06
1.24248e-06
1.24426e-06
1.24463e-06
1.24553e-06
1.24464e-06
1.24409e-06
1.24248e-06
1.24248e-06
1.24249e-06
1.24248e-06
1.24248e-06
1.24423e-06
1.24463e-06
1.24554e-06
1.24555e-06
1.24412e-06
1.24248e-06
1.24249e-06
1.24249e-06
1.2425e-06
1.24249e-06
1.24249e-06
1.24248e-06
1.24426e-06
1.24472e-06
1.24561e-06
1.2445e-06
1.24248e-06
1.24249e-06
1.24249e-06
1.2425e-06
1.2425e-06
1.2425e-06
1.24249e-06
1.24249e-06
1.24248e-06
1.24472e-06
1.24571e-06
1.24442e-06
1.24248e-06
1.24249e-06
1.2425e-06
1.2425e-06
1.24251e-06
1.2425e-06
1.2425e-06
1.24249e-06
1.24248e-06
1.24469e-06
1.24569e-06
1.24447e-06
1.24248e-06
1.24249e-06
1.24249e-06
1.2425e-06
1.2425e-06
1.2425e-06
1.24249e-06
1.24248e-06
1.24248e-06
1.2447e-06
1.2457e-06
1.24549e-06
1.24426e-06
1.24248e-06
1.24249e-06
1.24249e-06
1.2425e-06
1.24249e-06
1.24249e-06
1.24248e-06
1.24444e-06
1.24474e-06
1.24572e-06
1.24557e-06
1.24463e-06
1.24423e-06
1.24248e-06
1.24249e-06
1.24249e-06
1.24249e-06
1.24248e-06
1.24441e-06
1.24464e-06
1.24482e-06
1.24553e-06
1.24463e-06
1.24426e-06
1.24248e-06
1.24248e-06
1.24248e-06
1.24444e-06
1.24464e-06
1.24479e-06
1.24571e-06
1.24554e-06
1.24472e-06
1.24472e-06
1.24469e-06
1.2447e-06
1.24474e-06
1.24481e-06
1.24571e-06
1.24561e-06
1.24571e-06
1.24569e-06
1.2457e-06
1.24572e-06
1.23452e-06
1.23347e-06
1.23339e-06
1.23344e-06
1.23446e-06
1.23455e-06
1.23457e-06
1.23362e-06
1.23309e-06
1.23145e-06
1.23145e-06
1.23145e-06
1.23323e-06
1.23361e-06
1.2345e-06
1.23362e-06
1.23306e-06
1.23145e-06
1.23145e-06
1.23145e-06
1.23145e-06
1.23145e-06
1.2332e-06
1.2336e-06
1.23451e-06
1.23452e-06
1.23309e-06
1.23145e-06
1.23145e-06
1.23146e-06
1.23146e-06
1.23146e-06
1.23145e-06
1.23145e-06
1.23323e-06
1.23369e-06
1.23458e-06
1.23347e-06
1.23145e-06
1.23145e-06
1.23146e-06
1.23146e-06
1.23146e-06
1.23146e-06
1.23146e-06
1.23145e-06
1.23145e-06
1.23369e-06
1.23468e-06
1.23339e-06
1.23145e-06
1.23145e-06
1.23146e-06
1.23146e-06
1.23146e-06
1.23146e-06
1.23146e-06
1.23145e-06
1.23145e-06
1.23367e-06
1.23467e-06
1.23344e-06
1.23145e-06
1.23145e-06
1.23146e-06
1.23146e-06
1.23146e-06
1.23146e-06
1.23146e-06
1.23145e-06
1.23145e-06
1.23368e-06
1.23467e-06
1.23446e-06
1.23323e-06
1.23145e-06
1.23145e-06
1.23146e-06
1.23146e-06
1.23146e-06
1.23145e-06
1.23145e-06
1.23341e-06
1.23371e-06
1.23469e-06
1.23455e-06
1.23361e-06
1.2332e-06
1.23145e-06
1.23145e-06
1.23145e-06
1.23145e-06
1.23145e-06
1.23338e-06
1.23362e-06
1.23379e-06
1.2345e-06
1.2336e-06
1.23323e-06
1.23145e-06
1.23145e-06
1.23145e-06
1.23341e-06
1.23362e-06
1.23376e-06
1.23468e-06
1.23451e-06
1.23369e-06
1.23369e-06
1.23367e-06
1.23368e-06
1.23371e-06
1.23379e-06
1.23468e-06
1.23458e-06
1.23468e-06
1.23467e-06
1.23467e-06
1.23469e-06
1.22349e-06
1.22244e-06
1.22236e-06
1.22241e-06
1.22344e-06
1.22352e-06
1.22354e-06
1.22259e-06
1.22206e-06
1.22042e-06
1.22042e-06
1.22042e-06
1.2222e-06
1.22258e-06
1.22348e-06
1.22259e-06
1.22203e-06
1.22042e-06
1.22042e-06
1.22042e-06
1.22042e-06
1.22042e-06
1.22218e-06
1.22257e-06
1.22348e-06
1.22349e-06
1.22206e-06
1.22042e-06
1.22042e-06
1.22042e-06
1.22042e-06
1.22042e-06
1.22042e-06
1.22042e-06
1.2222e-06
1.22266e-06
1.22355e-06
1.22244e-06
1.22042e-06
1.22042e-06
1.22042e-06
1.22042e-06
1.22043e-06
1.22042e-06
1.22042e-06
1.22042e-06
1.22042e-06
1.22266e-06
1.22365e-06
1.22236e-06
1.22042e-06
1.22042e-06
1.22042e-06
1.22043e-06
1.22043e-06
1.22043e-06
1.22042e-06
1.22042e-06
1.22042e-06
1.22264e-06
1.22364e-06
1.22241e-06
1.22042e-06
1.22042e-06
1.22042e-06
1.22042e-06
1.22043e-06
1.22042e-06
1.22042e-06
1.22042e-06
1.22042e-06
1.22265e-06
1.22364e-06
1.22344e-06
1.2222e-06
1.22042e-06
1.22042e-06
1.22042e-06
1.22042e-06
1.22042e-06
1.22042e-06
1.22042e-06
1.22238e-06
1.22268e-06
1.22366e-06
1.22352e-06
1.22258e-06
1.22218e-06
1.22042e-06
1.22042e-06
1.22042e-06
1.22042e-06
1.22042e-06
1.22235e-06
1.22259e-06
1.22276e-06
1.22348e-06
1.22257e-06
1.2222e-06
1.22042e-06
1.22042e-06
1.22042e-06
1.22238e-06
1.22259e-06
1.22273e-06
1.22365e-06
1.22348e-06
1.22266e-06
1.22266e-06
1.22264e-06
1.22265e-06
1.22268e-06
1.22276e-06
1.22365e-06
1.22355e-06
1.22365e-06
1.22364e-06
1.22364e-06
1.22366e-06
1.21246e-06
1.21141e-06
1.21134e-06
1.21139e-06
1.21241e-06
1.21249e-06
1.21251e-06
1.21156e-06
1.21103e-06
1.20939e-06
1.20939e-06
1.20939e-06
1.21117e-06
1.21155e-06
1.21245e-06
1.21156e-06
1.211e-06
1.20939e-06
1.20939e-06
1.20939e-06
1.20939e-06
1.20939e-06
1.21115e-06
1.21155e-06
1.21245e-06
1.21246e-06
1.21103e-06
1.20939e-06
1.20939e-06
1.20939e-06
1.20939e-06
1.20939e-06
1.20939e-06
1.20939e-06
1.21117e-06
1.21163e-06
1.21252e-06
1.21141e-06
1.20939e-06
1.20939e-06
1.20939e-06
1.20939e-06
1.20939e-06
1.20939e-06
1.20939e-06
1.20939e-06
1.20939e-06
1.21163e-06
1.21262e-06
1.21134e-06
1.20939e-06
1.20939e-06
1.20939e-06
1.20939e-06
1.20939e-06
1.20939e-06
1.20939e-06
1.20939e-06
1.20939e-06
1.21161e-06
1.21261e-06
1.21139e-06
1.20939e-06
1.20939e-06
1.20939e-06
1.20939e-06
1.20939e-06
1.20939e-06
1.20939e-06
1.20939e-06
1.20939e-06
1.21162e-06
1.21261e-06
1.21241e-06
1.21117e-06
1.20939e-06
1.20939e-06
1.20939e-06
1.20939e-06
1.20939e-06
1.20939e-06
1.20939e-06
1.21136e-06
1.21166e-06
1.21263e-06
1.21249e-06
1.21155e-06
1.21115e-06
1.20939e-06
1.20939e-06
1.20939e-06
1.20939e-06
1.20939e-06
1.21132e-06
1.21156e-06
1.21173e-06
1.21245e-06
1.21155e-06
1.21117e-06
1.20939e-06
1.20939e-06
1.20939e-06
1.21136e-06
1.21156e-06
1.2117e-06
1.21262e-06
1.21245e-06
1.21163e-06
1.21163e-06
1.21161e-06
1.21162e-06
1.21166e-06
1.21173e-06
1.21262e-06
1.21252e-06
1.21262e-06
1.21261e-06
1.21261e-06
1.21263e-06
1.20143e-06
1.20038e-06
1.20031e-06
1.20036e-06
1.20138e-06
1.20146e-06
1.20148e-06
1.20053e-06
1.20001e-06
1.19836e-06
1.19836e-06
1.19836e-06
1.20014e-06
1.20052e-06
1.20142e-06
1.20053e-06
1.19997e-06
1.19836e-06
1.19836e-06
1.19836e-06
1.19836e-06
1.19836e-06
1.20012e-06
1.20052e-06
1.20142e-06
1.20143e-06
1.20001e-06
1.19836e-06
1.19836e-06
1.19836e-06
1.19836e-06
1.19836e-06
1.19836e-06
1.19836e-06
1.20014e-06
1.2006e-06
1.20149e-06
1.20038e-06
1.19836e-06
1.19836e-06
1.19836e-06
1.19836e-06
1.19836e-06
1.19836e-06
1.19836e-06
1.19836e-06
1.19836e-06
1.20061e-06
1.20159e-06
1.20031e-06
1.19836e-06
1.19836e-06
1.19836e-06
1.19836e-06
1.19836e-06
1.19836e-06
1.19836e-06
1.19836e-06
1.19836e-06
1.20058e-06
1.20158e-06
1.20036e-06
1.19836e-06
1.19836e-06
1.19836e-06
1.19836e-06
1.19836e-06
1.19836e-06
1.19836e-06
1.19836e-06
1.19836e-06
1.20059e-06
1.20158e-06
1.20138e-06
1.20014e-06
1.19836e-06
1.19836e-06
1.19836e-06
1.19836e-06
1.19836e-06
1.19836e-06
1.19836e-06
1.20033e-06
1.20063e-06
1.2016e-06
1.20146e-06
1.20052e-06
1.20012e-06
1.19836e-06
1.19836e-06
1.19836e-06
1.19836e-06
1.19836e-06
1.20029e-06
1.20053e-06
1.2007e-06
1.20142e-06
1.20052e-06
1.20014e-06
1.19836e-06
1.19836e-06
1.19836e-06
1.20033e-06
1.20053e-06
1.20068e-06
1.2016e-06
1.20142e-06
1.2006e-06
1.20061e-06
1.20058e-06
1.20059e-06
1.20063e-06
1.2007e-06
1.2016e-06
1.20149e-06
1.20159e-06
1.20158e-06
1.20158e-06
1.2016e-06
1.19041e-06
1.18935e-06
1.18928e-06
1.18933e-06
1.19035e-06
1.19043e-06
1.19045e-06
1.1895e-06
1.18898e-06
1.18733e-06
1.18733e-06
1.18733e-06
1.18912e-06
1.18949e-06
1.19039e-06
1.1895e-06
1.18894e-06
1.18733e-06
1.18733e-06
1.18733e-06
1.18733e-06
1.18733e-06
1.18909e-06
1.18949e-06
1.1904e-06
1.19041e-06
1.18898e-06
1.18733e-06
1.18733e-06
1.18733e-06
1.18733e-06
1.18733e-06
1.18733e-06
1.18733e-06
1.18911e-06
1.18957e-06
1.19046e-06
1.18935e-06
1.18733e-06
1.18733e-06
1.18733e-06
1.18733e-06
1.18733e-06
1.18733e-06
1.18733e-06
1.18733e-06
1.18733e-06
1.18958e-06
1.19056e-06
1.18928e-06
1.18733e-06
1.18733e-06
1.18733e-06
1.18733e-06
1.18733e-06
1.18733e-06
1.18733e-06
1.18733e-06
1.18733e-06
1.18955e-06
1.19055e-06
1.18933e-06
1.18733e-06
1.18733e-06
1.18733e-06
1.18733e-06
1.18733e-06
1.18733e-06
1.18733e-06
1.18733e-06
1.18733e-06
1.18956e-06
1.19056e-06
1.19035e-06
1.18912e-06
1.18733e-06
1.18733e-06
1.18733e-06
1.18733e-06
1.18733e-06
1.18733e-06
1.18733e-06
1.1893e-06
1.1896e-06
1.19058e-06
1.19043e-06
1.18949e-06
1.18909e-06
1.18733e-06
1.18733e-06
1.18733e-06
1.18733e-06
1.18733e-06
1.18926e-06
1.1895e-06
1.18967e-06
1.19039e-06
1.18949e-06
1.18911e-06
1.18733e-06
1.18733e-06
1.18733e-06
1.1893e-06
1.1895e-06
1.18965e-06
1.19057e-06
1.1904e-06
1.18957e-06
1.18958e-06
1.18955e-06
1.18956e-06
1.1896e-06
1.18967e-06
1.19057e-06
1.19046e-06
1.19056e-06
1.19055e-06
1.19056e-06
1.19058e-06
1.17938e-06
1.17833e-06
1.17825e-06
1.1783e-06
1.17932e-06
1.1794e-06
1.17942e-06
1.17847e-06
1.17795e-06
1.1763e-06
1.1763e-06
1.1763e-06
1.17809e-06
1.17846e-06
1.17936e-06
1.17847e-06
1.17792e-06
1.1763e-06
1.1763e-06
1.1763e-06
1.1763e-06
1.1763e-06
1.17806e-06
1.17846e-06
1.17937e-06
1.17938e-06
1.17795e-06
1.1763e-06
1.1763e-06
1.1763e-06
1.1763e-06
1.1763e-06
1.1763e-06
1.1763e-06
1.17808e-06
1.17855e-06
1.17944e-06
1.17833e-06
1.1763e-06
1.1763e-06
1.1763e-06
1.1763e-06
1.1763e-06
1.1763e-06
1.1763e-06
1.1763e-06
1.1763e-06
1.17855e-06
1.17954e-06
1.17825e-06
1.1763e-06
1.1763e-06
1.1763e-06
1.1763e-06
1.1763e-06
1.1763e-06
1.1763e-06
1.1763e-06
1.1763e-06
1.17852e-06
1.17952e-06
1.1783e-06
1.1763e-06
1.1763e-06
1.1763e-06
1.1763e-06
1.1763e-06
1.1763e-06
1.1763e-06
1.1763e-06
1.1763e-06
1.17853e-06
1.17953e-06
1.17932e-06
1.17809e-06
1.1763e-06
1.1763e-06
1.1763e-06
1.1763e-06
1.1763e-06
1.1763e-06
1.1763e-06
1.17827e-06
1.17857e-06
1.17955e-06
1.1794e-06
1.17846e-06
1.17806e-06
1.1763e-06
1.1763e-06
1.1763e-06
1.1763e-06
1.1763e-06
1.17823e-06
1.17847e-06
1.17865e-06
1.17936e-06
1.17846e-06
1.17808e-06
1.1763e-06
1.1763e-06
1.1763e-06
1.17827e-06
1.17847e-06
1.17862e-06
1.17954e-06
1.17937e-06
1.17855e-06
1.17855e-06
1.17852e-06
1.17853e-06
1.17857e-06
1.17865e-06
1.17954e-06
1.17944e-06
1.17954e-06
1.17952e-06
1.17953e-06
1.17955e-06
1.16835e-06
1.1673e-06
1.16722e-06
1.16727e-06
1.16829e-06
1.16838e-06
1.1684e-06
1.16745e-06
1.16692e-06
1.16527e-06
1.16527e-06
1.16527e-06
1.16706e-06
1.16744e-06
1.16833e-06
1.16745e-06
1.16689e-06
1.16527e-06
1.16528e-06
1.16527e-06
1.16528e-06
1.16527e-06
1.16703e-06
1.16743e-06
1.16834e-06
1.16835e-06
1.16692e-06
1.16527e-06
1.16528e-06
1.16528e-06
1.16528e-06
1.16528e-06
1.16528e-06
1.16527e-06
1.16706e-06
1.16752e-06
1.16841e-06
1.1673e-06
1.16527e-06
1.16528e-06
1.16528e-06
1.16528e-06
1.16528e-06
1.16528e-06
1.16528e-06
1.16528e-06
1.16527e-06
1.16752e-06
1.16851e-06
1.16722e-06
1.16527e-06
1.16527e-06
1.16528e-06
1.16528e-06
1.16528e-06
1.16528e-06
1.16528e-06
1.16527e-06
1.16527e-06
1.16749e-06
1.1685e-06
1.16727e-06
1.16527e-06
1.16528e-06
1.16528e-06
1.16528e-06
1.16528e-06
1.16528e-06
1.16528e-06
1.16528e-06
1.16527e-06
1.16751e-06
1.1685e-06
1.16829e-06
1.16706e-06
1.16527e-06
1.16528e-06
1.16528e-06
1.16528e-06
1.16528e-06
1.16528e-06
1.16527e-06
1.16724e-06
1.16754e-06
1.16852e-06
1.16838e-06
1.16744e-06
1.16703e-06
1.16527e-06
1.16528e-06
1.16527e-06
1.16528e-06
1.16527e-06
1.1672e-06
1.16745e-06
1.16762e-06
1.16833e-06
1.16743e-06
1.16706e-06
1.16527e-06
1.16527e-06
1.16527e-06
1.16724e-06
1.16745e-06
1.16759e-06
1.16851e-06
1.16834e-06
1.16752e-06
1.16752e-06
1.16749e-06
1.16751e-06
1.16754e-06
1.16762e-06
1.16851e-06
1.16841e-06
1.16851e-06
1.1685e-06
1.1685e-06
1.16852e-06
1.15732e-06
1.15627e-06
1.15619e-06
1.15624e-06
1.15727e-06
1.15735e-06
1.15737e-06
1.15642e-06
1.15589e-06
1.15425e-06
1.15425e-06
1.15425e-06
1.15603e-06
1.15641e-06
1.15731e-06
1.15642e-06
1.15586e-06
1.15425e-06
1.15425e-06
1.15425e-06
1.15425e-06
1.15425e-06
1.156e-06
1.1564e-06
1.15731e-06
1.15732e-06
1.15589e-06
1.15425e-06
1.15425e-06
1.15425e-06
1.15425e-06
1.15425e-06
1.15425e-06
1.15425e-06
1.15603e-06
1.15649e-06
1.15738e-06
1.15627e-06
1.15425e-06
1.15425e-06
1.15425e-06
1.15425e-06
1.15425e-06
1.15425e-06
1.15425e-06
1.15425e-06
1.15425e-06
1.15649e-06
1.15748e-06
1.15619e-06
1.15425e-06
1.15425e-06
1.15425e-06
1.15425e-06
1.15425e-06
1.15425e-06
1.15425e-06
1.15425e-06
1.15425e-06
1.15647e-06
1.15747e-06
1.15624e-06
1.15425e-06
1.15425e-06
1.15425e-06
1.15425e-06
1.15425e-06
1.15425e-06
1.15425e-06
1.15425e-06
1.15425e-06
1.15648e-06
1.15747e-06
1.15727e-06
1.15603e-06
1.15425e-06
1.15425e-06
1.15425e-06
1.15425e-06
1.15425e-06
1.15425e-06
1.15425e-06
1.15621e-06
1.15651e-06
1.15749e-06
1.15735e-06
1.15641e-06
1.156e-06
1.15425e-06
1.15425e-06
1.15425e-06
1.15425e-06
1.15425e-06
1.15618e-06
1.15642e-06
1.15659e-06
1.15731e-06
1.1564e-06
1.15603e-06
1.15425e-06
1.15425e-06
1.15425e-06
1.15621e-06
1.15642e-06
1.15656e-06
1.15748e-06
1.15731e-06
1.15649e-06
1.15649e-06
1.15647e-06
1.15648e-06
1.15651e-06
1.15659e-06
1.15748e-06
1.15738e-06
1.15748e-06
1.15747e-06
1.15747e-06
1.15749e-06
1.14629e-06
1.14524e-06
1.14517e-06
1.14522e-06
1.14624e-06
1.14632e-06
1.14634e-06
1.14539e-06
1.14486e-06
1.14322e-06
1.14322e-06
1.14322e-06
1.145e-06
1.14538e-06
1.14628e-06
1.14539e-06
1.14483e-06
1.14322e-06
1.14322e-06
1.14322e-06
1.14322e-06
1.14322e-06
1.14498e-06
1.14538e-06
1.14628e-06
1.14629e-06
1.14486e-06
1.14322e-06
1.14322e-06
1.14322e-06
1.14322e-06
1.14322e-06
1.14322e-06
1.14322e-06
1.145e-06
1.14546e-06
1.14635e-06
1.14524e-06
1.14322e-06
1.14322e-06
1.14322e-06
1.14322e-06
1.14322e-06
1.14322e-06
1.14322e-06
1.14322e-06
1.14322e-06
1.14546e-06
1.14645e-06
1.14517e-06
1.14322e-06
1.14322e-06
1.14322e-06
1.14322e-06
1.14322e-06
1.14322e-06
1.14322e-06
1.14322e-06
1.14322e-06
1.14544e-06
1.14644e-06
1.14522e-06
1.14322e-06
1.14322e-06
1.14322e-06
1.14322e-06
1.14322e-06
1.14322e-06
1.14322e-06
1.14322e-06
1.14322e-06
1.14545e-06
1.14644e-06
1.14624e-06
1.145e-06
1.14322e-06
1.14322e-06
1.14322e-06
1.14322e-06
1.14322e-06
1.14322e-06
1.14322e-06
1.14518e-06
1.14549e-06
1.14646e-06
1.14632e-06
1.14538e-06
1.14498e-06
1.14322e-06
1.14322e-06
1.14322e-06
1.14322e-06
1.14322e-06
1.14515e-06
1.14539e-06
1.14556e-06
1.14628e-06
1.14538e-06
1.145e-06
1.14322e-06
1.14322e-06
1.14322e-06
1.14518e-06
1.14539e-06
1.14553e-06
1.14645e-06
1.14628e-06
1.14546e-06
1.14546e-06
1.14544e-06
1.14545e-06
1.14549e-06
1.14556e-06
1.14645e-06
1.14635e-06
1.14645e-06
1.14644e-06
1.14644e-06
1.14646e-06
1.13526e-06
1.13421e-06
1.13414e-06
1.13419e-06
1.13521e-06
1.13529e-06
1.13531e-06
1.13436e-06
1.13383e-06
1.13219e-06
1.13219e-06
1.13219e-06
1.13397e-06
1.13435e-06
1.13525e-06
1.13436e-06
1.1338e-06
1.13219e-06
1.13219e-06
1.13219e-06
1.13219e-06
1.13219e-06
1.13395e-06
1.13435e-06
1.13525e-06
1.13526e-06
1.13383e-06
1.13219e-06
1.13219e-06
1.13219e-06
1.13219e-06
1.13219e-06
1.13219e-06
1.13219e-06
1.13397e-06
1.13443e-06
1.13532e-06
1.13421e-06
1.13219e-06
1.13219e-06
1.13219e-06
1.13219e-06
1.13219e-06
1.13219e-06
1.13219e-06
1.13219e-06
1.13219e-06
1.13443e-06
1.13542e-06
1.13414e-06
1.13219e-06
1.13219e-06
1.13219e-06
1.13219e-06
1.13219e-06
1.13219e-06
1.13219e-06
1.13219e-06
1.13219e-06
1.13441e-06
1.13541e-06
1.13419e-06
1.13219e-06
1.13219e-06
1.13219e-06
1.13219e-06
1.13219e-06
1.13219e-06
1.13219e-06
1.13219e-06
1.13219e-06
1.13442e-06
1.13541e-06
1.13521e-06
1.13397e-06
1.13219e-06
1.13219e-06
1.13219e-06
1.13219e-06
1.13219e-06
1.13219e-06
1.13219e-06
1.13416e-06
1.13446e-06
1.13543e-06
1.13529e-06
1.13435e-06
1.13395e-06
1.13219e-06
1.13219e-06
1.13219e-06
1.13219e-06
1.13219e-06
1.13412e-06
1.13436e-06
1.13453e-06
1.13525e-06
1.13435e-06
1.13397e-06
1.13219e-06
1.13219e-06
1.13219e-06
1.13416e-06
1.13436e-06
1.13451e-06
1.13543e-06
1.13525e-06
1.13443e-06
1.13443e-06
1.13441e-06
1.13442e-06
1.13446e-06
1.13453e-06
1.13543e-06
1.13532e-06
1.13542e-06
1.13541e-06
1.13541e-06
1.13543e-06
1.12423e-06
1.12318e-06
1.12311e-06
1.12316e-06
1.12418e-06
1.12426e-06
1.12428e-06
1.12333e-06
1.12281e-06
1.12116e-06
1.12116e-06
1.12116e-06
1.12295e-06
1.12332e-06
1.12422e-06
1.12333e-06
1.12277e-06
1.12116e-06
1.12116e-06
1.12116e-06
1.12116e-06
1.12116e-06
1.12292e-06
1.12332e-06
1.12422e-06
1.12423e-06
1.12281e-06
1.12116e-06
1.12116e-06
1.12116e-06
1.12116e-06
1.12116e-06
1.12116e-06
1.12116e-06
1.12294e-06
1.1234e-06
1.12429e-06
1.12318e-06
1.12116e-06
1.12116e-06
1.12116e-06
1.12116e-06
1.12116e-06
1.12116e-06
1.12116e-06
1.12116e-06
1.12116e-06
1.12341e-06
1.12439e-06
1.12311e-06
1.12116e-06
1.12116e-06
1.12116e-06
1.12116e-06
1.12116e-06
1.12116e-06
1.12116e-06
1.12116e-06
1.12116e-06
1.12338e-06
1.12438e-06
1.12316e-06
1.12116e-06
1.12116e-06
1.12116e-06
1.12116e-06
1.12116e-06
1.12116e-06
1.12116e-06
1.12116e-06
1.12116e-06
1.12339e-06
1.12438e-06
1.12418e-06
1.12295e-06
1.12116e-06
1.12116e-06
1.12116e-06
1.12116e-06
1.12116e-06
1.12116e-06
1.12116e-06
1.12313e-06
1.12343e-06
1.12441e-06
1.12426e-06
1.12332e-06
1.12292e-06
1.12116e-06
1.12116e-06
1.12116e-06
1.12116e-06
1.12116e-06
1.12309e-06
1.12333e-06
1.1235e-06
1.12422e-06
1.12332e-06
1.12294e-06
1.12116e-06
1.12116e-06
1.12116e-06
1.12313e-06
1.12333e-06
1.12348e-06
1.1244e-06
1.12422e-06
1.1234e-06
1.12341e-06
1.12338e-06
1.12339e-06
1.12343e-06
1.1235e-06
1.1244e-06
1.12429e-06
1.12439e-06
1.12438e-06
1.12438e-06
1.12441e-06
1.11321e-06
1.11216e-06
1.11208e-06
1.11213e-06
1.11315e-06
1.11323e-06
1.11325e-06
1.1123e-06
1.11178e-06
1.11013e-06
1.11013e-06
1.11013e-06
1.11192e-06
1.11229e-06
1.11319e-06
1.1123e-06
1.11175e-06
1.11013e-06
1.11013e-06
1.11013e-06
1.11013e-06
1.11013e-06
1.11189e-06
1.11229e-06
1.1132e-06
1.11321e-06
1.11178e-06
1.11013e-06
1.11013e-06
1.11013e-06
1.11013e-06
1.11013e-06
1.11013e-06
1.11013e-06
1.11191e-06
1.11238e-06
1.11327e-06
1.11216e-06
1.11013e-06
1.11013e-06
1.11013e-06
1.11013e-06
1.11013e-06
1.11013e-06
1.11013e-06
1.11013e-06
1.11013e-06
1.11238e-06
1.11337e-06
1.11208e-06
1.11013e-06
1.11013e-06
1.11013e-06
1.11013e-06
1.11013e-06
1.11013e-06
1.11013e-06
1.11013e-06
1.11013e-06
1.11235e-06
1.11335e-06
1.11213e-06
1.11013e-06
1.11013e-06
1.11013e-06
1.11013e-06
1.11013e-06
1.11013e-06
1.11013e-06
1.11013e-06
1.11013e-06
1.11236e-06
1.11336e-06
1.11315e-06
1.11192e-06
1.11013e-06
1.11013e-06
1.11013e-06
1.11013e-06
1.11013e-06
1.11013e-06
1.11013e-06
1.1121e-06
1.1124e-06
1.11338e-06
1.11323e-06
1.11229e-06
1.11189e-06
1.11013e-06
1.11013e-06
1.11013e-06
1.11013e-06
1.11013e-06
1.11206e-06
1.1123e-06
1.11248e-06
1.11319e-06
1.11229e-06
1.11191e-06
1.11013e-06
1.11013e-06
1.11013e-06
1.1121e-06
1.1123e-06
1.11245e-06
1.11337e-06
1.1132e-06
1.11238e-06
1.11238e-06
1.11235e-06
1.11236e-06
1.1124e-06
1.11248e-06
1.11337e-06
1.11327e-06
1.11337e-06
1.11335e-06
1.11336e-06
1.11338e-06
1.10218e-06
1.10113e-06
1.10105e-06
1.1011e-06
1.10212e-06
1.10221e-06
1.10223e-06
1.10127e-06
1.10075e-06
1.0991e-06
1.0991e-06
1.0991e-06
1.10089e-06
1.10127e-06
1.10216e-06
1.10127e-06
1.10072e-06
1.0991e-06
1.0991e-06
1.0991e-06
1.0991e-06
1.0991e-06
1.10086e-06
1.10126e-06
1.10217e-06
1.10218e-06
1.10075e-06
1.0991e-06
1.0991e-06
1.0991e-06
1.0991e-06
1.0991e-06
1.0991e-06
1.0991e-06
1.10089e-06
1.10135e-06
1.10224e-06
1.10113e-06
1.0991e-06
1.0991e-06
1.0991e-06
1.0991e-06
1.0991e-06
1.0991e-06
1.0991e-06
1.0991e-06
1.0991e-06
1.10135e-06
1.10234e-06
1.10105e-06
1.0991e-06
1.0991e-06
1.0991e-06
1.0991e-06
1.0991e-06
1.0991e-06
1.0991e-06
1.0991e-06
1.0991e-06
1.10132e-06
1.10233e-06
1.1011e-06
1.0991e-06
1.0991e-06
1.0991e-06
1.0991e-06
1.0991e-06
1.0991e-06
1.0991e-06
1.0991e-06
1.0991e-06
1.10134e-06
1.10233e-06
1.10212e-06
1.10089e-06
1.0991e-06
1.0991e-06
1.0991e-06
1.0991e-06
1.0991e-06
1.0991e-06
1.0991e-06
1.10107e-06
1.10137e-06
1.10235e-06
1.10221e-06
1.10127e-06
1.10086e-06
1.0991e-06
1.0991e-06
1.0991e-06
1.0991e-06
1.0991e-06
1.10103e-06
1.10128e-06
1.10145e-06
1.10216e-06
1.10126e-06
1.10089e-06
1.0991e-06
1.0991e-06
1.0991e-06
1.10107e-06
1.10128e-06
1.10142e-06
1.10234e-06
1.10217e-06
1.10135e-06
1.10135e-06
1.10132e-06
1.10134e-06
1.10137e-06
1.10145e-06
1.10234e-06
1.10224e-06
1.10234e-06
1.10233e-06
1.10233e-06
1.10235e-06
1.09115e-06
1.0901e-06
1.09002e-06
1.09007e-06
1.0911e-06
1.09118e-06
1.0912e-06
1.09025e-06
1.08972e-06
1.08808e-06
1.08808e-06
1.08808e-06
1.08986e-06
1.09024e-06
1.09113e-06
1.09025e-06
1.08969e-06
1.08808e-06
1.08808e-06
1.08808e-06
1.08808e-06
1.08808e-06
1.08983e-06
1.09023e-06
1.09114e-06
1.09115e-06
1.08972e-06
1.08808e-06
1.08808e-06
1.08808e-06
1.08808e-06
1.08808e-06
1.08808e-06
1.08808e-06
1.08986e-06
1.09032e-06
1.09121e-06
1.0901e-06
1.08808e-06
1.08808e-06
1.08808e-06
1.08808e-06
1.08808e-06
1.08808e-06
1.08808e-06
1.08808e-06
1.08808e-06
1.09032e-06
1.09131e-06
1.09002e-06
1.08808e-06
1.08808e-06
1.08808e-06
1.08808e-06
1.08808e-06
1.08808e-06
1.08808e-06
1.08808e-06
1.08808e-06
1.0903e-06
1.0913e-06
1.09007e-06
1.08808e-06
1.08808e-06
1.08808e-06
1.08808e-06
1.08808e-06
1.08808e-06
1.08808e-06
1.08808e-06