/*--------------------------------*- C++ -*----------------------------------*\
| =========                 |                                                 |
| \\      /  F ield         | OpenFOAM: The Open Source CFD Toolbox           |
|  \\    /   O peration     | Version:  v2012                                 |
|   \\  /    A nd           | Website:  www.openfoam.com                      |
|    \\/     M anipulation  |                                                 |
\*---------------------------------------------------------------------------*/
FoamFile
{
    version     2.0;
    format      ascii;
    class       volScalarField;
    location    "5";
    object      p;
}
// * * * * * * * * * * * * * * * * * * * * * * * * * * * * * * * * * * * * * //

dimensions      [0 2 -2 0 0 0 0];


internalField   nonuniform List<scalar> 
292667
(
2.04119e-06
2.02007e-06
2.01811e-06
2.0183e-06
2.02119e-06
2.04223e-06
2.02094e-06
2.01443e-06
2.01093e-06
2.00955e-06
2.00974e-06
2.01159e-06
2.01578e-06
2.02308e-06
2.02094e-06
2.01282e-06
2.00826e-06
2.00583e-06
2.00482e-06
2.00496e-06
2.0063e-06
2.00919e-06
2.01449e-06
2.02367e-06
2.04119e-06
2.01443e-06
2.00826e-06
2.00481e-06
2.0029e-06
2.00209e-06
2.0022e-06
2.00327e-06
2.00551e-06
2.0095e-06
2.01667e-06
2.04358e-06
2.02007e-06
2.01093e-06
2.00583e-06
2.0029e-06
2.00125e-06
2.00054e-06
2.00064e-06
2.00157e-06
2.0035e-06
2.00686e-06
2.01278e-06
2.02906e-06
2.01811e-06
2.00955e-06
2.00482e-06
2.00209e-06
2.00054e-06
1.99987e-06
1.99997e-06
2.00084e-06
2.00264e-06
2.00577e-06
2.01126e-06
2.02473e-06
2.0183e-06
2.00974e-06
2.00496e-06
2.0022e-06
2.00064e-06
1.99997e-06
2.00006e-06
2.00094e-06
2.00276e-06
2.00592e-06
2.01145e-06
2.02465e-06
2.02119e-06
2.01159e-06
2.0063e-06
2.00327e-06
2.00157e-06
2.00084e-06
2.00094e-06
2.0019e-06
2.00388e-06
2.00735e-06
2.01349e-06
2.02982e-06
2.04223e-06
2.01578e-06
2.00919e-06
2.00551e-06
2.0035e-06
2.00264e-06
2.00276e-06
2.00388e-06
2.00624e-06
2.01048e-06
2.01806e-06
2.04445e-06
2.02308e-06
2.01449e-06
2.0095e-06
2.00686e-06
2.00577e-06
2.00592e-06
2.00735e-06
2.01048e-06
2.01624e-06
2.03042e-06
2.02367e-06
2.01667e-06
2.01278e-06
2.01126e-06
2.01145e-06
2.01349e-06
2.01806e-06
2.03042e-06
2.04358e-06
2.02905e-06
2.02473e-06
2.02465e-06
2.02982e-06
2.04445e-06
1.98716e-06
1.98515e-06
1.9851e-06
1.98515e-06
1.98675e-06
1.98699e-06
1.98721e-06
1.9857e-06
1.98506e-06
1.98253e-06
1.9825e-06
1.98254e-06
1.98486e-06
1.98543e-06
1.98692e-06
1.9857e-06
1.98502e-06
1.98246e-06
1.98244e-06
1.98243e-06
1.98244e-06
1.98246e-06
1.9847e-06
1.98543e-06
1.9869e-06
1.98716e-06
1.98506e-06
1.98246e-06
1.98241e-06
1.98239e-06
1.98238e-06
1.98239e-06
1.98241e-06
1.98246e-06
1.98472e-06
1.98544e-06
1.98728e-06
1.98516e-06
1.98253e-06
1.98244e-06
1.98239e-06
1.98235e-06
1.98233e-06
1.98235e-06
1.98239e-06
1.98244e-06
1.98253e-06
1.98523e-06
1.98677e-06
1.9851e-06
1.9825e-06
1.98243e-06
1.98238e-06
1.98233e-06
1.98232e-06
1.98233e-06
1.98238e-06
1.98243e-06
1.9825e-06
1.98495e-06
1.98647e-06
1.98515e-06
1.98253e-06
1.98244e-06
1.98239e-06
1.98235e-06
1.98233e-06
1.98235e-06
1.98239e-06
1.98244e-06
1.98254e-06
1.98506e-06
1.98651e-06
1.98675e-06
1.98486e-06
1.98246e-06
1.98241e-06
1.98239e-06
1.98238e-06
1.98239e-06
1.98241e-06
1.98246e-06
1.98445e-06
1.98532e-06
1.98699e-06
1.98699e-06
1.98543e-06
1.9847e-06
1.98246e-06
1.98244e-06
1.98243e-06
1.98244e-06
1.98246e-06
1.98435e-06
1.98514e-06
1.98558e-06
1.98692e-06
1.98543e-06
1.98472e-06
1.98253e-06
1.9825e-06
1.98254e-06
1.98445e-06
1.98514e-06
1.98568e-06
1.98713e-06
1.9869e-06
1.98544e-06
1.98523e-06
1.98495e-06
1.98506e-06
1.98532e-06
1.98558e-06
1.98713e-06
1.98728e-06
1.98677e-06
1.98647e-06
1.98651e-06
1.98699e-06
1.97007e-06
1.96832e-06
1.96825e-06
1.96828e-06
1.96979e-06
1.97008e-06
1.97025e-06
1.96862e-06
1.96802e-06
1.96522e-06
1.96521e-06
1.96522e-06
1.96788e-06
1.9684e-06
1.96996e-06
1.96862e-06
1.96798e-06
1.9653e-06
1.96525e-06
1.96525e-06
1.96526e-06
1.9653e-06
1.96777e-06
1.96839e-06
1.96995e-06
1.97007e-06
1.96802e-06
1.9653e-06
1.96529e-06
1.96529e-06
1.9653e-06
1.96529e-06
1.96529e-06
1.9653e-06
1.96777e-06
1.96846e-06
1.97013e-06
1.96832e-06
1.96522e-06
1.96526e-06
1.96529e-06
1.96531e-06
1.96531e-06
1.96531e-06
1.96529e-06
1.96525e-06
1.96522e-06
1.96817e-06
1.97e-06
1.96825e-06
1.96521e-06
1.96525e-06
1.9653e-06
1.96531e-06
1.96531e-06
1.96531e-06
1.9653e-06
1.96525e-06
1.96521e-06
1.96802e-06
1.96985e-06
1.96828e-06
1.96522e-06
1.96526e-06
1.96529e-06
1.96531e-06
1.96531e-06
1.96531e-06
1.96529e-06
1.96525e-06
1.96522e-06
1.96807e-06
1.96986e-06
1.96979e-06
1.96788e-06
1.9653e-06
1.96529e-06
1.96529e-06
1.9653e-06
1.96529e-06
1.96529e-06
1.9653e-06
1.96755e-06
1.96834e-06
1.97008e-06
1.97008e-06
1.9684e-06
1.96777e-06
1.9653e-06
1.96525e-06
1.96525e-06
1.96525e-06
1.9653e-06
1.96748e-06
1.96816e-06
1.96862e-06
1.96996e-06
1.96839e-06
1.96778e-06
1.96522e-06
1.96521e-06
1.96522e-06
1.96755e-06
1.96816e-06
1.96862e-06
1.97018e-06
1.96995e-06
1.96846e-06
1.96818e-06
1.96802e-06
1.96807e-06
1.96834e-06
1.96862e-06
1.97018e-06
1.97013e-06
1.97e-06
1.96985e-06
1.96986e-06
1.97008e-06
1.95333e-06
1.95158e-06
1.95151e-06
1.95154e-06
1.95307e-06
1.95333e-06
1.95348e-06
1.95183e-06
1.9512e-06
1.94832e-06
1.94832e-06
1.94832e-06
1.95107e-06
1.95161e-06
1.95318e-06
1.95183e-06
1.95116e-06
1.94836e-06
1.94834e-06
1.94834e-06
1.94834e-06
1.94836e-06
1.95095e-06
1.95159e-06
1.95319e-06
1.95333e-06
1.9512e-06
1.94836e-06
1.94836e-06
1.94837e-06
1.94838e-06
1.94837e-06
1.94836e-06
1.94836e-06
1.95096e-06
1.95169e-06
1.95339e-06
1.95158e-06
1.94832e-06
1.94834e-06
1.94837e-06
1.94839e-06
1.94839e-06
1.94839e-06
1.94837e-06
1.94834e-06
1.94832e-06
1.95144e-06
1.95329e-06
1.95151e-06
1.94832e-06
1.94834e-06
1.94838e-06
1.94839e-06
1.9484e-06
1.94839e-06
1.94838e-06
1.94834e-06
1.94831e-06
1.95134e-06
1.95317e-06
1.95154e-06
1.94832e-06
1.94834e-06
1.94837e-06
1.94839e-06
1.94839e-06
1.94839e-06
1.94837e-06
1.94834e-06
1.94832e-06
1.95137e-06
1.95318e-06
1.95307e-06
1.95107e-06
1.94836e-06
1.94836e-06
1.94837e-06
1.94838e-06
1.94837e-06
1.94835e-06
1.94835e-06
1.95075e-06
1.95157e-06
1.95336e-06
1.95333e-06
1.95161e-06
1.95096e-06
1.94836e-06
1.94834e-06
1.94834e-06
1.94834e-06
1.94835e-06
1.9507e-06
1.95136e-06
1.95185e-06
1.95318e-06
1.95159e-06
1.95097e-06
1.94832e-06
1.94832e-06
1.94832e-06
1.95075e-06
1.95136e-06
1.95182e-06
1.95342e-06
1.95319e-06
1.95169e-06
1.95144e-06
1.95134e-06
1.95137e-06
1.95157e-06
1.95185e-06
1.95342e-06
1.95339e-06
1.95329e-06
1.95317e-06
1.95318e-06
1.95336e-06
1.93655e-06
1.93479e-06
1.93471e-06
1.93474e-06
1.93628e-06
1.93655e-06
1.9367e-06
1.93503e-06
1.93439e-06
1.93147e-06
1.93147e-06
1.93147e-06
1.93426e-06
1.93482e-06
1.93639e-06
1.93503e-06
1.93434e-06
1.93149e-06
1.93149e-06
1.93149e-06
1.93149e-06
1.93149e-06
1.93415e-06
1.9348e-06
1.93641e-06
1.93655e-06
1.93439e-06
1.93149e-06
1.9315e-06
1.93151e-06
1.93152e-06
1.93151e-06
1.9315e-06
1.93149e-06
1.93417e-06
1.9349e-06
1.93661e-06
1.93479e-06
1.93147e-06
1.93149e-06
1.93151e-06
1.93152e-06
1.93153e-06
1.93152e-06
1.93151e-06
1.93149e-06
1.93147e-06
1.93465e-06
1.93651e-06
1.93471e-06
1.93147e-06
1.93149e-06
1.93152e-06
1.93153e-06
1.93153e-06
1.93153e-06
1.93151e-06
1.93149e-06
1.93147e-06
1.93456e-06
1.93639e-06
1.93474e-06
1.93147e-06
1.93149e-06
1.93151e-06
1.93152e-06
1.93153e-06
1.93152e-06
1.93151e-06
1.93148e-06
1.93147e-06
1.93459e-06
1.9364e-06
1.93628e-06
1.93426e-06
1.93149e-06
1.9315e-06
1.93151e-06
1.93152e-06
1.93151e-06
1.9315e-06
1.93149e-06
1.93397e-06
1.93478e-06
1.93658e-06
1.93655e-06
1.93482e-06
1.93415e-06
1.93149e-06
1.93149e-06
1.93149e-06
1.93149e-06
1.93149e-06
1.93392e-06
1.93457e-06
1.93506e-06
1.93639e-06
1.9348e-06
1.93417e-06
1.93147e-06
1.93147e-06
1.93147e-06
1.93397e-06
1.93457e-06
1.93503e-06
1.93664e-06
1.93641e-06
1.9349e-06
1.93465e-06
1.93456e-06
1.93459e-06
1.93479e-06
1.93506e-06
1.93664e-06
1.93661e-06
1.93651e-06
1.93639e-06
1.9364e-06
1.93658e-06
1.91975e-06
1.91799e-06
1.91791e-06
1.91794e-06
1.91949e-06
1.91976e-06
1.9199e-06
1.91823e-06
1.91758e-06
1.91465e-06
1.91465e-06
1.91465e-06
1.91745e-06
1.91802e-06
1.9196e-06
1.91823e-06
1.91752e-06
1.91466e-06
1.91466e-06
1.91466e-06
1.91466e-06
1.91466e-06
1.91734e-06
1.918e-06
1.91961e-06
1.91975e-06
1.91758e-06
1.91466e-06
1.91466e-06
1.91467e-06
1.91468e-06
1.91467e-06
1.91466e-06
1.91466e-06
1.91736e-06
1.9181e-06
1.91982e-06
1.91799e-06
1.91465e-06
1.91466e-06
1.91468e-06
1.91469e-06
1.91469e-06
1.91468e-06
1.91467e-06
1.91466e-06
1.91465e-06
1.91785e-06
1.91971e-06
1.91791e-06
1.91465e-06
1.91466e-06
1.91468e-06
1.91469e-06
1.91469e-06
1.91469e-06
1.91468e-06
1.91466e-06
1.91465e-06
1.91776e-06
1.9196e-06
1.91794e-06
1.91465e-06
1.91466e-06
1.91467e-06
1.91469e-06
1.91469e-06
1.91468e-06
1.91467e-06
1.91466e-06
1.91465e-06
1.9178e-06
1.9196e-06
1.91949e-06
1.91745e-06
1.91466e-06
1.91466e-06
1.91467e-06
1.91468e-06
1.91467e-06
1.91466e-06
1.91466e-06
1.91716e-06
1.91799e-06
1.91978e-06
1.91976e-06
1.91802e-06
1.91734e-06
1.91466e-06
1.91466e-06
1.91466e-06
1.91466e-06
1.91466e-06
1.91713e-06
1.91777e-06
1.91826e-06
1.9196e-06
1.918e-06
1.91736e-06
1.91465e-06
1.91465e-06
1.91465e-06
1.91716e-06
1.91777e-06
1.91823e-06
1.91984e-06
1.91961e-06
1.9181e-06
1.91785e-06
1.91776e-06
1.91779e-06
1.91799e-06
1.91826e-06
1.91984e-06
1.91982e-06
1.91971e-06
1.9196e-06
1.9196e-06
1.91978e-06
1.90295e-06
1.90118e-06
1.9011e-06
1.90114e-06
1.90268e-06
1.90295e-06
1.9031e-06
1.90143e-06
1.90077e-06
1.89784e-06
1.89784e-06
1.89784e-06
1.90065e-06
1.90122e-06
1.9028e-06
1.90143e-06
1.90071e-06
1.89784e-06
1.89784e-06
1.89785e-06
1.89784e-06
1.89784e-06
1.90054e-06
1.9012e-06
1.90281e-06
1.90295e-06
1.90077e-06
1.89784e-06
1.89785e-06
1.89785e-06
1.89786e-06
1.89785e-06
1.89785e-06
1.89784e-06
1.90056e-06
1.9013e-06
1.90301e-06
1.90118e-06
1.89784e-06
1.89784e-06
1.89785e-06
1.89786e-06
1.89786e-06
1.89786e-06
1.89785e-06
1.89784e-06
1.89784e-06
1.90105e-06
1.90291e-06
1.9011e-06
1.89784e-06
1.89785e-06
1.89786e-06
1.89786e-06
1.89787e-06
1.89786e-06
1.89786e-06
1.89785e-06
1.89784e-06
1.90096e-06
1.9028e-06
1.90114e-06
1.89784e-06
1.89784e-06
1.89785e-06
1.89786e-06
1.89786e-06
1.89786e-06
1.89785e-06
1.89784e-06
1.89784e-06
1.90099e-06
1.9028e-06
1.90268e-06
1.90065e-06
1.89784e-06
1.89785e-06
1.89785e-06
1.89786e-06
1.89785e-06
1.89785e-06
1.89784e-06
1.90036e-06
1.90119e-06
1.90298e-06
1.90295e-06
1.90122e-06
1.90054e-06
1.89784e-06
1.89784e-06
1.89785e-06
1.89784e-06
1.89784e-06
1.90033e-06
1.90097e-06
1.90146e-06
1.9028e-06
1.9012e-06
1.90056e-06
1.89784e-06
1.89784e-06
1.89784e-06
1.90036e-06
1.90097e-06
1.90143e-06
1.90305e-06
1.90281e-06
1.9013e-06
1.90105e-06
1.90096e-06
1.90099e-06
1.90119e-06
1.90146e-06
1.90304e-06
1.90302e-06
1.90291e-06
1.9028e-06
1.9028e-06
1.90298e-06
1.88615e-06
1.88438e-06
1.8843e-06
1.88434e-06
1.88588e-06
1.88615e-06
1.8863e-06
1.88463e-06
1.88397e-06
1.88103e-06
1.88103e-06
1.88103e-06
1.88384e-06
1.88442e-06
1.88599e-06
1.88463e-06
1.88391e-06
1.88103e-06
1.88103e-06
1.88104e-06
1.88103e-06
1.88103e-06
1.88374e-06
1.88439e-06
1.88601e-06
1.88615e-06
1.88397e-06
1.88103e-06
1.88104e-06
1.88104e-06
1.88104e-06
1.88104e-06
1.88104e-06
1.88103e-06
1.88376e-06
1.8845e-06
1.88621e-06
1.88438e-06
1.88103e-06
1.88103e-06
1.88104e-06
1.88104e-06
1.88105e-06
1.88104e-06
1.88104e-06
1.88103e-06
1.88103e-06
1.88425e-06
1.88611e-06
1.8843e-06
1.88103e-06
1.88104e-06
1.88104e-06
1.88105e-06
1.88105e-06
1.88105e-06
1.88104e-06
1.88104e-06
1.88103e-06
1.88416e-06
1.88599e-06
1.88434e-06
1.88103e-06
1.88103e-06
1.88104e-06
1.88104e-06
1.88105e-06
1.88104e-06
1.88104e-06
1.88103e-06
1.88103e-06
1.88419e-06
1.886e-06
1.88588e-06
1.88384e-06
1.88103e-06
1.88104e-06
1.88104e-06
1.88104e-06
1.88104e-06
1.88104e-06
1.88103e-06
1.88356e-06
1.88438e-06
1.88618e-06
1.88615e-06
1.88442e-06
1.88374e-06
1.88103e-06
1.88103e-06
1.88104e-06
1.88103e-06
1.88103e-06
1.88353e-06
1.88417e-06
1.88466e-06
1.88599e-06
1.88439e-06
1.88376e-06
1.88103e-06
1.88103e-06
1.88103e-06
1.88356e-06
1.88417e-06
1.88463e-06
1.88624e-06
1.88601e-06
1.8845e-06
1.88425e-06
1.88416e-06
1.88419e-06
1.88438e-06
1.88466e-06
1.88624e-06
1.88621e-06
1.88611e-06
1.88599e-06
1.886e-06
1.88618e-06
1.86935e-06
1.86758e-06
1.8675e-06
1.86753e-06
1.86908e-06
1.86935e-06
1.8695e-06
1.86783e-06
1.86717e-06
1.86423e-06
1.86423e-06
1.86423e-06
1.86704e-06
1.86762e-06
1.86919e-06
1.86783e-06
1.86711e-06
1.86423e-06
1.86423e-06
1.86423e-06
1.86423e-06
1.86423e-06
1.86693e-06
1.86759e-06
1.86921e-06
1.86935e-06
1.86717e-06
1.86423e-06
1.86423e-06
1.86423e-06
1.86423e-06
1.86423e-06
1.86423e-06
1.86423e-06
1.86695e-06
1.8677e-06
1.86941e-06
1.86758e-06
1.86423e-06
1.86423e-06
1.86423e-06
1.86423e-06
1.86424e-06
1.86423e-06
1.86423e-06
1.86423e-06
1.86423e-06
1.86745e-06
1.86931e-06
1.8675e-06
1.86423e-06
1.86423e-06
1.86423e-06
1.86424e-06
1.86424e-06
1.86424e-06
1.86423e-06
1.86423e-06
1.86423e-06
1.86736e-06
1.86919e-06
1.86753e-06
1.86423e-06
1.86423e-06
1.86423e-06
1.86423e-06
1.86424e-06
1.86423e-06
1.86423e-06
1.86423e-06
1.86423e-06
1.86739e-06
1.8692e-06
1.86908e-06
1.86704e-06
1.86423e-06
1.86423e-06
1.86423e-06
1.86423e-06
1.86423e-06
1.86423e-06
1.86423e-06
1.86676e-06
1.86758e-06
1.86938e-06
1.86935e-06
1.86762e-06
1.86693e-06
1.86423e-06
1.86423e-06
1.86423e-06
1.86423e-06
1.86423e-06
1.86673e-06
1.86736e-06
1.86786e-06
1.86919e-06
1.86759e-06
1.86695e-06
1.86423e-06
1.86423e-06
1.86423e-06
1.86676e-06
1.86736e-06
1.86782e-06
1.86944e-06
1.86921e-06
1.8677e-06
1.86745e-06
1.86736e-06
1.86739e-06
1.86758e-06
1.86786e-06
1.86944e-06
1.86941e-06
1.86931e-06
1.86919e-06
1.8692e-06
1.86938e-06
1.85255e-06
1.85078e-06
1.8507e-06
1.85073e-06
1.85228e-06
1.85255e-06
1.8527e-06
1.85103e-06
1.85036e-06
1.84742e-06
1.84742e-06
1.84742e-06
1.85024e-06
1.85081e-06
1.85239e-06
1.85102e-06
1.8503e-06
1.84742e-06
1.84742e-06
1.84743e-06
1.84742e-06
1.84742e-06
1.85013e-06
1.85079e-06
1.8524e-06
1.85255e-06
1.85036e-06
1.84742e-06
1.84743e-06
1.84743e-06
1.84743e-06
1.84743e-06
1.84743e-06
1.84742e-06
1.85015e-06
1.8509e-06
1.85261e-06
1.85078e-06
1.84742e-06
1.84742e-06
1.84743e-06
1.84743e-06
1.84743e-06
1.84743e-06
1.84743e-06
1.84742e-06
1.84742e-06
1.85065e-06
1.85251e-06
1.8507e-06
1.84742e-06
1.84743e-06
1.84743e-06
1.84743e-06
1.84743e-06
1.84743e-06
1.84743e-06
1.84742e-06
1.84742e-06
1.85056e-06
1.85239e-06
1.85073e-06
1.84742e-06
1.84742e-06
1.84743e-06
1.84743e-06
1.84743e-06
1.84743e-06
1.84743e-06
1.84742e-06
1.84742e-06
1.85059e-06
1.8524e-06
1.85228e-06
1.85024e-06
1.84742e-06
1.84743e-06
1.84743e-06
1.84743e-06
1.84743e-06
1.84743e-06
1.84742e-06
1.84996e-06
1.85078e-06
1.85258e-06
1.85255e-06
1.85081e-06
1.85013e-06
1.84742e-06
1.84742e-06
1.84743e-06
1.84742e-06
1.84742e-06
1.84992e-06
1.85056e-06
1.85106e-06
1.85239e-06
1.85079e-06
1.85015e-06
1.84742e-06
1.84742e-06
1.84742e-06
1.84996e-06
1.85056e-06
1.85102e-06
1.85264e-06
1.8524e-06
1.8509e-06
1.85065e-06
1.85056e-06
1.85059e-06
1.85078e-06
1.85106e-06
1.85264e-06
1.85261e-06
1.85251e-06
1.85239e-06
1.8524e-06
1.85258e-06
1.83574e-06
1.83397e-06
1.8339e-06
1.83393e-06
1.83548e-06
1.83575e-06
1.83589e-06
1.83422e-06
1.83356e-06
1.83062e-06
1.83062e-06
1.83062e-06
1.83344e-06
1.83401e-06
1.83559e-06
1.83422e-06
1.8335e-06
1.83062e-06
1.83062e-06
1.83062e-06
1.83062e-06
1.83062e-06
1.83333e-06
1.83399e-06
1.8356e-06
1.83574e-06
1.83356e-06
1.83062e-06
1.83062e-06
1.83062e-06
1.83062e-06
1.83062e-06
1.83062e-06
1.83062e-06
1.83335e-06
1.8341e-06
1.83581e-06
1.83397e-06
1.83062e-06
1.83062e-06
1.83062e-06
1.83062e-06
1.83062e-06
1.83062e-06
1.83062e-06
1.83062e-06
1.83062e-06
1.83385e-06
1.83571e-06
1.8339e-06
1.83062e-06
1.83062e-06
1.83062e-06
1.83062e-06
1.83062e-06
1.83062e-06
1.83062e-06
1.83062e-06
1.83062e-06
1.83376e-06
1.83559e-06
1.83393e-06
1.83062e-06
1.83062e-06
1.83062e-06
1.83062e-06
1.83062e-06
1.83062e-06
1.83062e-06
1.83062e-06
1.83062e-06
1.83379e-06
1.83559e-06
1.83548e-06
1.83344e-06
1.83062e-06
1.83062e-06
1.83062e-06
1.83062e-06
1.83062e-06
1.83062e-06
1.83062e-06
1.83316e-06
1.83398e-06
1.83578e-06
1.83575e-06
1.83401e-06
1.83333e-06
1.83062e-06
1.83062e-06
1.83062e-06
1.83062e-06
1.83062e-06
1.83312e-06
1.83376e-06
1.83425e-06
1.83559e-06
1.83399e-06
1.83335e-06
1.83062e-06
1.83062e-06
1.83062e-06
1.83315e-06
1.83376e-06
1.83422e-06
1.83584e-06
1.8356e-06
1.8341e-06
1.83385e-06
1.83376e-06
1.83379e-06
1.83398e-06
1.83425e-06
1.83584e-06
1.83581e-06
1.83571e-06
1.83559e-06
1.8356e-06
1.83578e-06
1.81894e-06
1.81717e-06
1.81709e-06
1.81713e-06
1.81868e-06
1.81895e-06
1.81909e-06
1.81742e-06
1.81676e-06
1.81382e-06
1.81382e-06
1.81382e-06
1.81664e-06
1.81721e-06
1.81879e-06
1.81742e-06
1.8167e-06
1.81382e-06
1.81382e-06
1.81382e-06
1.81382e-06
1.81382e-06
1.81653e-06
1.81719e-06
1.8188e-06
1.81894e-06
1.81676e-06
1.81382e-06
1.81382e-06
1.81382e-06
1.81382e-06
1.81382e-06
1.81382e-06
1.81382e-06
1.81655e-06
1.81729e-06
1.81901e-06
1.81717e-06
1.81382e-06
1.81382e-06
1.81382e-06
1.81382e-06
1.81382e-06
1.81382e-06
1.81382e-06
1.81382e-06
1.81382e-06
1.81704e-06
1.8189e-06
1.81709e-06
1.81382e-06
1.81382e-06
1.81382e-06
1.81382e-06
1.81382e-06
1.81382e-06
1.81382e-06
1.81382e-06
1.81382e-06
1.81696e-06
1.81879e-06
1.81713e-06
1.81382e-06
1.81382e-06
1.81382e-06
1.81382e-06
1.81382e-06
1.81382e-06
1.81382e-06
1.81382e-06
1.81382e-06
1.81699e-06
1.81879e-06
1.81868e-06
1.81664e-06
1.81382e-06
1.81382e-06
1.81382e-06
1.81382e-06
1.81382e-06
1.81382e-06
1.81382e-06
1.81635e-06
1.81718e-06
1.81897e-06
1.81895e-06
1.81721e-06
1.81653e-06
1.81382e-06
1.81382e-06
1.81382e-06
1.81382e-06
1.81382e-06
1.81632e-06
1.81696e-06
1.81745e-06
1.81879e-06
1.81719e-06
1.81655e-06
1.81382e-06
1.81382e-06
1.81382e-06
1.81635e-06
1.81696e-06
1.81742e-06
1.81904e-06
1.8188e-06
1.81729e-06
1.81704e-06
1.81696e-06
1.81699e-06
1.81718e-06
1.81745e-06
1.81904e-06
1.81901e-06
1.8189e-06
1.81879e-06
1.81879e-06
1.81897e-06
1.80214e-06
1.80037e-06
1.80029e-06
1.80033e-06
1.80187e-06
1.80214e-06
1.80229e-06
1.80062e-06
1.79996e-06
1.79702e-06
1.79702e-06
1.79702e-06
1.79983e-06
1.80041e-06
1.80199e-06
1.80062e-06
1.7999e-06
1.79702e-06
1.79702e-06
1.79702e-06
1.79702e-06
1.79702e-06
1.79972e-06
1.80038e-06
1.802e-06
1.80214e-06
1.79996e-06
1.79702e-06
1.79702e-06
1.79702e-06
1.79702e-06
1.79702e-06
1.79702e-06
1.79702e-06
1.79975e-06
1.80049e-06
1.8022e-06
1.80037e-06
1.79702e-06
1.79702e-06
1.79702e-06
1.79702e-06
1.79702e-06
1.79702e-06
1.79702e-06
1.79702e-06
1.79702e-06
1.80024e-06
1.8021e-06
1.80029e-06
1.79702e-06
1.79702e-06
1.79702e-06
1.79702e-06
1.79702e-06
1.79702e-06
1.79702e-06
1.79702e-06
1.79702e-06
1.80015e-06
1.80199e-06
1.80033e-06
1.79702e-06
1.79702e-06
1.79702e-06
1.79702e-06
1.79702e-06
1.79702e-06
1.79702e-06
1.79702e-06
1.79702e-06
1.80018e-06
1.80199e-06
1.80187e-06
1.79983e-06
1.79702e-06
1.79702e-06
1.79702e-06
1.79702e-06
1.79702e-06
1.79702e-06
1.79702e-06
1.79955e-06
1.80038e-06
1.80217e-06
1.80214e-06
1.80041e-06
1.79972e-06
1.79702e-06
1.79702e-06
1.79702e-06
1.79702e-06
1.79702e-06
1.79952e-06
1.80016e-06
1.80065e-06
1.80199e-06
1.80038e-06
1.79975e-06
1.79702e-06
1.79702e-06
1.79702e-06
1.79955e-06
1.80016e-06
1.80062e-06
1.80224e-06
1.802e-06
1.80049e-06
1.80024e-06
1.80015e-06
1.80018e-06
1.80038e-06
1.80065e-06
1.80223e-06
1.8022e-06
1.8021e-06
1.80199e-06
1.80199e-06
1.80217e-06
1.78534e-06
1.78357e-06
1.78349e-06
1.78352e-06
1.78507e-06
1.78534e-06
1.78549e-06
1.78382e-06
1.78316e-06
1.78021e-06
1.78021e-06
1.78021e-06
1.78303e-06
1.78361e-06
1.78518e-06
1.78382e-06
1.7831e-06
1.78021e-06
1.78021e-06
1.78021e-06
1.78021e-06
1.78021e-06
1.78292e-06
1.78358e-06
1.7852e-06
1.78534e-06
1.78316e-06
1.78021e-06
1.78021e-06
1.78022e-06
1.78022e-06
1.78022e-06
1.78021e-06
1.78021e-06
1.78294e-06
1.78369e-06
1.7854e-06
1.78357e-06
1.78021e-06
1.78021e-06
1.78021e-06
1.78022e-06
1.78022e-06
1.78022e-06
1.78022e-06
1.78021e-06
1.78021e-06
1.78344e-06
1.7853e-06
1.78349e-06
1.78021e-06
1.78021e-06
1.78021e-06
1.78022e-06
1.78022e-06
1.78022e-06
1.78021e-06
1.78021e-06
1.78021e-06
1.78335e-06
1.78518e-06
1.78352e-06
1.78021e-06
1.78021e-06
1.78021e-06
1.78022e-06
1.78022e-06
1.78022e-06
1.78022e-06
1.78021e-06
1.78021e-06
1.78338e-06
1.78519e-06
1.78507e-06
1.78303e-06
1.78021e-06
1.78021e-06
1.78022e-06
1.78021e-06
1.78022e-06
1.78021e-06
1.78021e-06
1.78275e-06
1.78357e-06
1.78537e-06
1.78534e-06
1.78361e-06
1.78292e-06
1.78021e-06
1.78021e-06
1.78021e-06
1.78021e-06
1.78021e-06
1.78272e-06
1.78335e-06
1.78385e-06
1.78518e-06
1.78358e-06
1.78294e-06
1.78021e-06
1.78021e-06
1.78021e-06
1.78275e-06
1.78335e-06
1.78382e-06
1.78543e-06
1.7852e-06
1.78369e-06
1.78344e-06
1.78335e-06
1.78338e-06
1.78357e-06
1.78385e-06
1.78543e-06
1.7854e-06
1.7853e-06
1.78518e-06
1.78519e-06
1.78537e-06
1.76854e-06
1.76677e-06
1.76669e-06
1.76672e-06
1.76827e-06
1.76854e-06
1.76869e-06
1.76702e-06
1.76635e-06
1.76341e-06
1.76341e-06
1.76341e-06
1.76623e-06
1.7668e-06
1.76838e-06
1.76702e-06
1.76629e-06
1.76341e-06
1.76341e-06
1.76341e-06
1.76341e-06
1.76341e-06
1.76612e-06
1.76678e-06
1.76839e-06
1.76854e-06
1.76635e-06
1.76341e-06
1.76341e-06
1.76341e-06
1.76341e-06
1.76341e-06
1.76341e-06
1.76341e-06
1.76614e-06
1.76689e-06
1.7686e-06
1.76677e-06
1.76341e-06
1.76341e-06
1.76341e-06
1.76341e-06
1.76341e-06
1.76341e-06
1.76341e-06
1.76341e-06
1.76341e-06
1.76664e-06
1.7685e-06
1.76669e-06
1.76341e-06
1.76341e-06
1.76341e-06
1.76341e-06
1.76341e-06
1.76341e-06
1.76341e-06
1.76341e-06
1.76341e-06
1.76655e-06
1.76838e-06
1.76672e-06
1.76341e-06
1.76341e-06
1.76341e-06
1.76341e-06
1.76341e-06
1.76341e-06
1.76341e-06
1.76341e-06
1.76341e-06
1.76658e-06
1.76839e-06
1.76827e-06
1.76623e-06
1.76341e-06
1.76341e-06
1.76341e-06
1.76341e-06
1.76341e-06
1.76341e-06
1.76341e-06
1.76595e-06
1.76677e-06
1.76857e-06
1.76854e-06
1.7668e-06
1.76612e-06
1.76341e-06
1.76341e-06
1.76341e-06
1.76341e-06
1.76341e-06
1.76591e-06
1.76655e-06
1.76705e-06
1.76838e-06
1.76678e-06
1.76614e-06
1.76341e-06
1.76341e-06
1.76341e-06
1.76595e-06
1.76655e-06
1.76701e-06
1.76863e-06
1.76839e-06
1.76689e-06
1.76664e-06
1.76655e-06
1.76658e-06
1.76677e-06
1.76705e-06
1.76863e-06
1.7686e-06
1.7685e-06
1.76838e-06
1.76839e-06
1.76857e-06
1.75174e-06
1.74996e-06
1.74989e-06
1.74992e-06
1.75147e-06
1.75174e-06
1.75188e-06
1.75021e-06
1.74955e-06
1.74661e-06
1.74661e-06
1.74661e-06
1.74943e-06
1.75e-06
1.75158e-06
1.75021e-06
1.74949e-06
1.74661e-06
1.74661e-06
1.74661e-06
1.74661e-06
1.74661e-06
1.74932e-06
1.74998e-06
1.75159e-06
1.75174e-06
1.74955e-06
1.74661e-06
1.74661e-06
1.74661e-06
1.74661e-06
1.74661e-06
1.74661e-06
1.74661e-06
1.74934e-06
1.75009e-06
1.7518e-06
1.74996e-06
1.74661e-06
1.74661e-06
1.74661e-06
1.74661e-06
1.74661e-06
1.74661e-06
1.74661e-06
1.74661e-06
1.74661e-06
1.74984e-06
1.7517e-06
1.74989e-06
1.74661e-06
1.74661e-06
1.74661e-06
1.74661e-06
1.74661e-06
1.74661e-06
1.74661e-06
1.74661e-06
1.74661e-06
1.74975e-06
1.75158e-06
1.74992e-06
1.74661e-06
1.74661e-06
1.74661e-06
1.74661e-06
1.74661e-06
1.74661e-06
1.74661e-06
1.74661e-06
1.74661e-06
1.74978e-06
1.75159e-06
1.75147e-06
1.74943e-06
1.74661e-06
1.74661e-06
1.74661e-06
1.74661e-06
1.74661e-06
1.74661e-06
1.74661e-06
1.74915e-06
1.74997e-06
1.75177e-06
1.75174e-06
1.75e-06
1.74932e-06
1.74661e-06
1.74661e-06
1.74661e-06
1.74661e-06
1.74661e-06
1.74911e-06
1.74975e-06
1.75024e-06
1.75158e-06
1.74998e-06
1.74934e-06
1.74661e-06
1.74661e-06
1.74661e-06
1.74915e-06
1.74975e-06
1.75021e-06
1.75183e-06
1.75159e-06
1.75009e-06
1.74984e-06
1.74975e-06
1.74978e-06
1.74997e-06
1.75024e-06
1.75183e-06
1.7518e-06
1.7517e-06
1.75158e-06
1.75159e-06
1.75177e-06
1.73493e-06
1.73316e-06
1.73308e-06
1.73312e-06
1.73467e-06
1.73494e-06
1.73508e-06
1.73341e-06
1.73275e-06
1.72981e-06
1.72981e-06
1.72981e-06
1.73263e-06
1.7332e-06
1.73478e-06
1.73341e-06
1.73269e-06
1.72981e-06
1.72981e-06
1.72981e-06
1.72981e-06
1.72981e-06
1.73252e-06
1.73318e-06
1.73479e-06
1.73493e-06
1.73275e-06
1.72981e-06
1.72981e-06
1.72981e-06
1.72981e-06
1.72981e-06
1.72981e-06
1.72981e-06
1.73254e-06
1.73328e-06
1.735e-06
1.73316e-06
1.72981e-06
1.72981e-06
1.72981e-06
1.72981e-06
1.72981e-06
1.72981e-06
1.72981e-06
1.72981e-06
1.72981e-06
1.73303e-06
1.73489e-06
1.73308e-06
1.72981e-06
1.72981e-06
1.72981e-06
1.72981e-06
1.72981e-06
1.72981e-06
1.72981e-06
1.72981e-06
1.72981e-06
1.73295e-06
1.73478e-06
1.73312e-06
1.72981e-06
1.72981e-06
1.72981e-06
1.72981e-06
1.72981e-06
1.72981e-06
1.72981e-06
1.72981e-06
1.72981e-06
1.73298e-06
1.73478e-06
1.73467e-06
1.73263e-06
1.72981e-06
1.72981e-06
1.72981e-06
1.72981e-06
1.72981e-06
1.72981e-06
1.72981e-06
1.73234e-06
1.73317e-06
1.73496e-06
1.73494e-06
1.7332e-06
1.73252e-06
1.72981e-06
1.72981e-06
1.72981e-06
1.72981e-06
1.72981e-06
1.73231e-06
1.73295e-06
1.73344e-06
1.73478e-06
1.73318e-06
1.73254e-06
1.72981e-06
1.72981e-06
1.72981e-06
1.73234e-06
1.73295e-06
1.73341e-06
1.73503e-06
1.73479e-06
1.73328e-06
1.73303e-06
1.73295e-06
1.73298e-06
1.73317e-06
1.73344e-06
1.73503e-06
1.735e-06
1.73489e-06
1.73478e-06
1.73478e-06
1.73496e-06
1.71813e-06
1.71636e-06
1.71628e-06
1.71632e-06
1.71786e-06
1.71814e-06
1.71828e-06
1.71661e-06
1.71595e-06
1.71301e-06
1.71301e-06
1.71301e-06
1.71582e-06
1.7164e-06
1.71798e-06
1.71661e-06
1.71589e-06
1.71301e-06
1.71301e-06
1.71301e-06
1.71301e-06
1.71301e-06
1.71572e-06
1.71638e-06
1.71799e-06
1.71813e-06
1.71595e-06
1.71301e-06
1.71301e-06
1.71301e-06
1.71301e-06
1.71301e-06
1.71301e-06
1.71301e-06
1.71574e-06
1.71648e-06
1.7182e-06
1.71636e-06
1.71301e-06
1.71301e-06
1.71301e-06
1.71301e-06
1.71301e-06
1.71301e-06
1.71301e-06
1.71301e-06
1.71301e-06
1.71623e-06
1.71809e-06
1.71628e-06
1.71301e-06
1.71301e-06
1.71301e-06
1.71301e-06
1.71301e-06
1.71301e-06
1.71301e-06
1.71301e-06
1.71301e-06
1.71614e-06
1.71798e-06
1.71632e-06
1.71301e-06
1.71301e-06
1.71301e-06
1.71301e-06
1.71301e-06
1.71301e-06
1.71301e-06
1.71301e-06
1.71301e-06
1.71617e-06
1.71798e-06
1.71786e-06
1.71583e-06
1.71301e-06
1.71301e-06
1.71301e-06
1.71301e-06
1.71301e-06
1.71301e-06
1.71301e-06
1.71554e-06
1.71637e-06
1.71816e-06
1.71814e-06
1.7164e-06
1.71572e-06
1.71301e-06
1.71301e-06
1.71301e-06
1.71301e-06
1.71301e-06
1.71551e-06
1.71615e-06
1.71664e-06
1.71798e-06
1.71638e-06
1.71574e-06
1.71301e-06
1.71301e-06
1.71301e-06
1.71554e-06
1.71615e-06
1.71661e-06
1.71823e-06
1.71799e-06
1.71648e-06
1.71623e-06
1.71614e-06
1.71617e-06
1.71637e-06
1.71664e-06
1.71822e-06
1.7182e-06
1.71809e-06
1.71798e-06
1.71798e-06
1.71816e-06
1.70133e-06
1.69956e-06
1.69948e-06
1.69952e-06
1.70106e-06
1.70133e-06
1.70148e-06
1.69981e-06
1.69915e-06
1.69621e-06
1.69621e-06
1.69621e-06
1.69902e-06
1.6996e-06
1.70117e-06
1.69981e-06
1.69909e-06
1.69621e-06
1.69621e-06
1.69621e-06
1.69621e-06
1.69621e-06
1.69891e-06
1.69957e-06
1.70119e-06
1.70133e-06
1.69915e-06
1.69621e-06
1.69621e-06
1.69621e-06
1.69621e-06
1.69621e-06
1.69621e-06
1.69621e-06
1.69893e-06
1.69968e-06
1.70139e-06
1.69956e-06
1.69621e-06
1.69621e-06
1.69621e-06
1.69621e-06
1.69621e-06
1.69621e-06
1.69621e-06
1.69621e-06
1.69621e-06
1.69943e-06
1.70129e-06
1.69948e-06
1.69621e-06
1.69621e-06
1.69621e-06
1.69621e-06
1.69621e-06
1.69621e-06
1.69621e-06
1.69621e-06
1.69621e-06
1.69934e-06
1.70117e-06
1.69952e-06
1.69621e-06
1.69621e-06
1.69621e-06
1.69621e-06
1.69621e-06
1.69621e-06
1.69621e-06
1.69621e-06
1.69621e-06
1.69937e-06
1.70118e-06
1.70106e-06
1.69902e-06
1.69621e-06
1.69621e-06
1.69621e-06
1.69621e-06
1.69621e-06
1.69621e-06
1.69621e-06
1.69874e-06
1.69956e-06
1.70136e-06
1.70133e-06
1.6996e-06
1.69891e-06
1.69621e-06
1.69621e-06
1.69621e-06
1.69621e-06
1.69621e-06
1.69871e-06
1.69934e-06
1.69984e-06
1.70117e-06
1.69957e-06
1.69893e-06
1.69621e-06
1.69621e-06
1.69621e-06
1.69874e-06
1.69934e-06
1.69981e-06
1.70142e-06
1.70119e-06
1.69968e-06
1.69943e-06
1.69934e-06
1.69937e-06
1.69956e-06
1.69984e-06
1.70142e-06
1.70139e-06
1.70129e-06
1.70117e-06
1.70118e-06
1.70136e-06
1.68453e-06
1.68276e-06
1.68268e-06
1.68271e-06
1.68426e-06
1.68453e-06
1.68468e-06
1.68301e-06
1.68234e-06
1.6794e-06
1.6794e-06
1.6794e-06
1.68222e-06
1.6828e-06
1.68437e-06
1.68301e-06
1.68229e-06
1.6794e-06
1.6794e-06
1.6794e-06
1.6794e-06
1.6794e-06
1.68211e-06
1.68277e-06
1.68439e-06
1.68453e-06
1.68234e-06
1.6794e-06
1.6794e-06
1.6794e-06
1.6794e-06
1.6794e-06
1.6794e-06
1.6794e-06
1.68213e-06
1.68288e-06
1.68459e-06
1.68276e-06
1.6794e-06
1.6794e-06
1.6794e-06
1.6794e-06
1.6794e-06
1.6794e-06
1.6794e-06
1.6794e-06
1.6794e-06
1.68263e-06
1.68449e-06
1.68268e-06
1.6794e-06
1.6794e-06
1.6794e-06
1.6794e-06
1.6794e-06
1.6794e-06
1.6794e-06
1.6794e-06
1.6794e-06
1.68254e-06
1.68437e-06
1.68271e-06
1.6794e-06
1.6794e-06
1.6794e-06
1.6794e-06
1.6794e-06
1.6794e-06
1.6794e-06
1.6794e-06
1.6794e-06
1.68257e-06
1.68438e-06
1.68426e-06
1.68222e-06
1.6794e-06
1.6794e-06
1.6794e-06
1.6794e-06
1.6794e-06
1.6794e-06
1.6794e-06
1.68194e-06
1.68276e-06
1.68456e-06
1.68453e-06
1.6828e-06
1.68211e-06
1.6794e-06
1.6794e-06
1.6794e-06
1.6794e-06
1.6794e-06
1.6819e-06
1.68254e-06
1.68304e-06
1.68437e-06
1.68277e-06
1.68213e-06
1.6794e-06
1.6794e-06
1.6794e-06
1.68194e-06
1.68254e-06
1.683e-06
1.68462e-06
1.68439e-06
1.68288e-06
1.68263e-06
1.68254e-06
1.68257e-06
1.68276e-06
1.68304e-06
1.68462e-06
1.68459e-06
1.68449e-06
1.68437e-06
1.68438e-06
1.68456e-06
1.66773e-06
1.66596e-06
1.66588e-06
1.66591e-06
1.66746e-06
1.66773e-06
1.66787e-06
1.6662e-06
1.66554e-06
1.6626e-06
1.6626e-06
1.6626e-06
1.66542e-06
1.66599e-06
1.66757e-06
1.6662e-06
1.66548e-06
1.6626e-06
1.6626e-06
1.6626e-06
1.6626e-06
1.6626e-06
1.66531e-06
1.66597e-06
1.66758e-06
1.66773e-06
1.66554e-06
1.6626e-06
1.6626e-06
1.6626e-06
1.6626e-06
1.6626e-06
1.6626e-06
1.6626e-06
1.66533e-06
1.66608e-06
1.66779e-06
1.66596e-06
1.6626e-06
1.6626e-06
1.6626e-06
1.6626e-06
1.6626e-06
1.6626e-06
1.6626e-06
1.6626e-06
1.6626e-06
1.66583e-06
1.66769e-06
1.66588e-06
1.6626e-06
1.6626e-06
1.6626e-06
1.6626e-06
1.6626e-06
1.6626e-06
1.6626e-06
1.6626e-06
1.6626e-06
1.66574e-06
1.66757e-06
1.66591e-06
1.6626e-06
1.6626e-06
1.6626e-06
1.6626e-06
1.6626e-06
1.6626e-06
1.6626e-06
1.6626e-06