/*--------------------------------*- C++ -*----------------------------------*\
| =========                 |                                                 |
| \\      /  F ield         | OpenFOAM: The Open Source CFD Toolbox           |
|  \\    /   O peration     | Version:  v2012                                 |
|   \\  /    A nd           | Website:  www.openfoam.com                      |
|    \\/     M anipulation  |                                                 |
\*---------------------------------------------------------------------------*/
FoamFile
{
    version     2.0;
    format      ascii;
    class       volScalarField;
    location    "60";
    object      p;
}
// * * * * * * * * * * * * * * * * * * * * * * * * * * * * * * * * * * * * * //

dimensions      [0 2 -2 0 0 0 0];


internalField   nonuniform List<scalar> 
292667
(
1.12102e-06
1.11189e-06
1.11118e-06
1.11124e-06
1.1122e-06
1.1219e-06
1.11209e-06
1.10965e-06
1.10821e-06
1.10761e-06
1.10769e-06
1.10846e-06
1.11011e-06
1.11278e-06
1.11209e-06
1.10893e-06
1.10695e-06
1.10585e-06
1.10539e-06
1.10545e-06
1.10605e-06
1.10732e-06
1.10955e-06
1.11297e-06
1.12103e-06
1.10965e-06
1.10695e-06
1.10533e-06
1.10443e-06
1.10405e-06
1.1041e-06
1.1046e-06
1.10565e-06
1.10747e-06
1.11049e-06
1.12057e-06
1.11189e-06
1.10821e-06
1.10585e-06
1.10443e-06
1.10363e-06
1.10328e-06
1.10333e-06
1.10378e-06
1.10472e-06
1.10632e-06
1.10899e-06
1.11534e-06
1.11118e-06
1.10761e-06
1.10539e-06
1.10405e-06
1.10328e-06
1.10295e-06
1.103e-06
1.10343e-06
1.10432e-06
1.10584e-06
1.10837e-06
1.11378e-06
1.11124e-06
1.10769e-06
1.10545e-06
1.1041e-06
1.10333e-06
1.103e-06
1.10304e-06
1.10348e-06
1.10437e-06
1.10591e-06
1.10846e-06
1.11408e-06
1.1122e-06
1.10846e-06
1.10605e-06
1.1046e-06
1.10378e-06
1.10343e-06
1.10348e-06
1.10394e-06
1.10489e-06
1.10654e-06
1.10928e-06
1.11564e-06
1.1219e-06
1.11011e-06
1.10732e-06
1.10565e-06
1.10472e-06
1.10432e-06
1.10437e-06
1.10489e-06
1.10598e-06
1.1079e-06
1.11102e-06
1.12044e-06
1.11278e-06
1.10955e-06
1.10747e-06
1.10632e-06
1.10584e-06
1.10591e-06
1.10654e-06
1.1079e-06
1.11026e-06
1.1163e-06
1.11297e-06
1.11049e-06
1.10899e-06
1.10837e-06
1.10846e-06
1.10928e-06
1.11102e-06
1.1163e-06
1.12057e-06
1.11534e-06
1.11378e-06
1.11408e-06
1.11564e-06
1.12044e-06
1.09592e-06
1.09518e-06
1.09515e-06
1.0952e-06
1.09593e-06
1.0958e-06
1.09596e-06
1.09539e-06
1.09503e-06
1.09377e-06
1.09375e-06
1.09377e-06
1.09519e-06
1.09544e-06
1.096e-06
1.09539e-06
1.09502e-06
1.09382e-06
1.09377e-06
1.09381e-06
1.09377e-06
1.09382e-06
1.09517e-06
1.09542e-06
1.09598e-06
1.09592e-06
1.09503e-06
1.09382e-06
1.09376e-06
1.09378e-06
1.09377e-06
1.09379e-06
1.09376e-06
1.09382e-06
1.09517e-06
1.09545e-06
1.09601e-06
1.09518e-06
1.09377e-06
1.09377e-06
1.09379e-06
1.09375e-06
1.09375e-06
1.09375e-06
1.09379e-06
1.09377e-06
1.09377e-06
1.0956e-06
1.09617e-06
1.09515e-06
1.09375e-06
1.09381e-06
1.09377e-06
1.09375e-06
1.09374e-06
1.09375e-06
1.09377e-06
1.09381e-06
1.09375e-06
1.09562e-06
1.0961e-06
1.0952e-06
1.09377e-06
1.09377e-06
1.09379e-06
1.09375e-06
1.09375e-06
1.09375e-06
1.09378e-06
1.09377e-06
1.09377e-06
1.09561e-06
1.09612e-06
1.09593e-06
1.09519e-06
1.09382e-06
1.09376e-06
1.09379e-06
1.09377e-06
1.09379e-06
1.09376e-06
1.09382e-06
1.09536e-06
1.09551e-06
1.09613e-06
1.0958e-06
1.09544e-06
1.09517e-06
1.09382e-06
1.09377e-06
1.09381e-06
1.09377e-06
1.09382e-06
1.09533e-06
1.09548e-06
1.09548e-06
1.096e-06
1.09542e-06
1.09517e-06
1.09377e-06
1.09375e-06
1.09377e-06
1.09536e-06
1.09548e-06
1.09552e-06
1.0961e-06
1.09598e-06
1.09545e-06
1.0956e-06
1.09562e-06
1.09561e-06
1.09551e-06
1.09548e-06
1.0961e-06
1.09601e-06
1.09617e-06
1.0961e-06
1.09612e-06
1.09613e-06
1.0866e-06
1.08583e-06
1.08577e-06
1.08582e-06
1.0866e-06
1.08663e-06
1.08662e-06
1.08595e-06
1.08553e-06
1.08431e-06
1.08431e-06
1.08431e-06
1.08569e-06
1.08598e-06
1.08662e-06
1.08595e-06
1.08551e-06
1.08436e-06
1.08436e-06
1.08439e-06
1.08436e-06
1.08436e-06
1.08569e-06
1.08598e-06
1.08662e-06
1.0866e-06
1.08553e-06
1.08436e-06
1.08437e-06
1.08442e-06
1.08442e-06
1.08442e-06
1.08437e-06
1.08436e-06
1.0857e-06
1.08604e-06
1.08665e-06
1.08583e-06
1.08431e-06
1.08436e-06
1.08442e-06
1.08443e-06
1.08445e-06
1.08443e-06
1.08442e-06
1.08436e-06
1.08431e-06
1.0861e-06
1.08679e-06
1.08577e-06
1.08431e-06
1.08439e-06
1.08442e-06
1.08445e-06
1.08445e-06
1.08445e-06
1.08442e-06
1.08439e-06
1.08431e-06
1.0861e-06
1.08681e-06
1.08582e-06
1.08431e-06
1.08436e-06
1.08442e-06
1.08443e-06
1.08445e-06
1.08443e-06
1.08442e-06
1.08436e-06
1.08431e-06
1.0861e-06
1.08681e-06
1.0866e-06
1.08569e-06
1.08436e-06
1.08437e-06
1.08442e-06
1.08442e-06
1.08442e-06
1.08437e-06
1.08436e-06
1.0859e-06
1.08608e-06
1.08679e-06
1.08663e-06
1.08598e-06
1.08569e-06
1.08436e-06
1.08436e-06
1.08439e-06
1.08436e-06
1.08436e-06
1.08588e-06
1.08602e-06
1.08611e-06
1.08662e-06
1.08598e-06
1.0857e-06
1.08431e-06
1.08431e-06
1.08431e-06
1.0859e-06
1.08602e-06
1.0861e-06
1.08677e-06
1.08662e-06
1.08604e-06
1.0861e-06
1.0861e-06
1.0861e-06
1.08608e-06
1.08611e-06
1.08677e-06
1.08665e-06
1.08679e-06
1.08681e-06
1.08681e-06
1.08679e-06
1.07731e-06
1.07653e-06
1.07646e-06
1.07651e-06
1.07731e-06
1.07734e-06
1.07733e-06
1.07664e-06
1.0762e-06
1.07497e-06
1.07497e-06
1.07497e-06
1.07635e-06
1.07666e-06
1.07733e-06
1.07664e-06
1.07618e-06
1.07499e-06
1.075e-06
1.07502e-06
1.075e-06
1.07499e-06
1.07634e-06
1.07666e-06
1.07733e-06
1.07731e-06
1.0762e-06
1.07499e-06
1.07502e-06
1.07505e-06
1.07505e-06
1.07505e-06
1.07502e-06
1.07499e-06
1.07636e-06
1.07673e-06
1.07736e-06
1.07653e-06
1.07497e-06
1.075e-06
1.07505e-06
1.07506e-06
1.07508e-06
1.07506e-06
1.07505e-06
1.075e-06
1.07497e-06
1.07678e-06
1.0775e-06
1.07646e-06
1.07497e-06
1.07502e-06
1.07505e-06
1.07508e-06
1.07508e-06
1.07508e-06
1.07505e-06
1.07502e-06
1.07497e-06
1.07678e-06
1.07752e-06
1.07651e-06
1.07497e-06
1.075e-06
1.07505e-06
1.07506e-06
1.07508e-06
1.07506e-06
1.07505e-06
1.075e-06
1.07497e-06
1.07678e-06
1.07752e-06
1.07731e-06
1.07635e-06
1.07499e-06
1.07502e-06
1.07505e-06
1.07505e-06
1.07505e-06
1.07502e-06
1.07499e-06
1.07657e-06
1.07678e-06
1.0775e-06
1.07734e-06
1.07666e-06
1.07634e-06
1.07499e-06
1.075e-06
1.07502e-06
1.075e-06
1.07499e-06
1.07654e-06
1.0767e-06
1.07682e-06
1.07733e-06
1.07666e-06
1.07636e-06
1.07497e-06
1.07497e-06
1.07497e-06
1.07657e-06
1.0767e-06
1.0768e-06
1.07748e-06
1.07733e-06
1.07673e-06
1.07678e-06
1.07678e-06
1.07678e-06
1.07678e-06
1.07682e-06
1.07748e-06
1.07736e-06
1.0775e-06
1.07752e-06
1.07752e-06
1.0775e-06
1.06802e-06
1.06723e-06
1.06717e-06
1.06721e-06
1.06802e-06
1.06805e-06
1.06804e-06
1.06734e-06
1.0669e-06
1.06565e-06
1.06566e-06
1.06565e-06
1.06705e-06
1.06736e-06
1.06804e-06
1.06734e-06
1.06687e-06
1.06567e-06
1.06568e-06
1.06568e-06
1.06568e-06
1.06567e-06
1.06703e-06
1.06736e-06
1.06804e-06
1.06802e-06
1.0669e-06
1.06567e-06
1.06568e-06
1.0657e-06
1.0657e-06
1.0657e-06
1.06568e-06
1.06567e-06
1.06705e-06
1.06744e-06
1.06807e-06
1.06723e-06
1.06565e-06
1.06568e-06
1.0657e-06
1.06571e-06
1.06572e-06
1.06571e-06
1.0657e-06
1.06568e-06
1.06565e-06
1.06748e-06
1.06821e-06
1.06717e-06
1.06566e-06
1.06568e-06
1.0657e-06
1.06572e-06
1.06573e-06
1.06572e-06
1.0657e-06
1.06568e-06
1.06566e-06
1.06747e-06
1.06822e-06
1.06721e-06
1.06565e-06
1.06568e-06
1.0657e-06
1.06571e-06
1.06572e-06
1.06571e-06
1.0657e-06
1.06568e-06
1.06565e-06
1.06748e-06
1.06822e-06
1.06802e-06
1.06705e-06
1.06567e-06
1.06568e-06
1.0657e-06
1.0657e-06
1.0657e-06
1.06568e-06
1.06567e-06
1.06726e-06
1.06748e-06
1.06821e-06
1.06805e-06
1.06736e-06
1.06703e-06
1.06567e-06
1.06568e-06
1.06568e-06
1.06568e-06
1.06567e-06
1.06723e-06
1.0674e-06
1.06753e-06
1.06804e-06
1.06736e-06
1.06705e-06
1.06565e-06
1.06566e-06
1.06565e-06
1.06726e-06
1.0674e-06
1.06751e-06
1.06819e-06
1.06804e-06
1.06744e-06
1.06748e-06
1.06747e-06
1.06748e-06
1.06748e-06
1.06753e-06
1.06819e-06
1.06807e-06
1.06821e-06
1.06822e-06
1.06822e-06
1.06821e-06
1.05873e-06
1.05793e-06
1.05787e-06
1.05792e-06
1.05872e-06
1.05876e-06
1.05875e-06
1.05805e-06
1.0576e-06
1.05635e-06
1.05635e-06
1.05635e-06
1.05775e-06
1.05806e-06
1.05874e-06
1.05805e-06
1.05757e-06
1.05636e-06
1.05636e-06
1.05637e-06
1.05636e-06
1.05636e-06
1.05773e-06
1.05806e-06
1.05875e-06
1.05873e-06
1.0576e-06
1.05636e-06
1.05637e-06
1.05638e-06
1.05638e-06
1.05638e-06
1.05637e-06
1.05636e-06
1.05775e-06
1.05814e-06
1.05878e-06
1.05793e-06
1.05635e-06
1.05636e-06
1.05638e-06
1.05639e-06
1.05639e-06
1.05639e-06
1.05638e-06
1.05636e-06
1.05635e-06
1.05819e-06
1.05892e-06
1.05787e-06
1.05635e-06
1.05637e-06
1.05638e-06
1.05639e-06
1.05639e-06
1.05639e-06
1.05638e-06
1.05637e-06
1.05635e-06
1.05818e-06
1.05893e-06
1.05792e-06
1.05635e-06
1.05636e-06
1.05638e-06
1.05639e-06
1.05639e-06
1.05639e-06
1.05638e-06
1.05636e-06
1.05635e-06
1.05818e-06
1.05893e-06
1.05872e-06
1.05775e-06
1.05636e-06
1.05637e-06
1.05638e-06
1.05638e-06
1.05638e-06
1.05637e-06
1.05636e-06
1.05796e-06
1.05819e-06
1.05891e-06
1.05876e-06
1.05806e-06
1.05773e-06
1.05636e-06
1.05636e-06
1.05637e-06
1.05636e-06
1.05636e-06
1.05793e-06
1.0581e-06
1.05824e-06
1.05874e-06
1.05806e-06
1.05775e-06
1.05635e-06
1.05635e-06
1.05635e-06
1.05796e-06
1.0581e-06
1.05821e-06
1.05889e-06
1.05875e-06
1.05814e-06
1.05819e-06
1.05818e-06
1.05818e-06
1.05819e-06
1.05824e-06
1.05889e-06
1.05878e-06
1.05892e-06
1.05893e-06
1.05893e-06
1.05891e-06
1.04943e-06
1.04864e-06
1.04857e-06
1.04862e-06
1.04943e-06
1.04946e-06
1.04945e-06
1.04875e-06
1.0483e-06
1.04705e-06
1.04705e-06
1.04705e-06
1.04845e-06
1.04876e-06
1.04945e-06
1.04875e-06
1.04827e-06
1.04705e-06
1.04706e-06
1.04706e-06
1.04706e-06
1.04705e-06
1.04843e-06
1.04876e-06
1.04945e-06
1.04943e-06
1.0483e-06
1.04705e-06
1.04706e-06
1.04706e-06
1.04707e-06
1.04706e-06
1.04706e-06
1.04705e-06
1.04845e-06
1.04885e-06
1.04948e-06
1.04864e-06
1.04705e-06
1.04706e-06
1.04706e-06
1.04707e-06
1.04707e-06
1.04707e-06
1.04706e-06
1.04706e-06
1.04705e-06
1.04889e-06
1.04962e-06
1.04857e-06
1.04705e-06
1.04706e-06
1.04707e-06
1.04707e-06
1.04707e-06
1.04707e-06
1.04707e-06
1.04706e-06
1.04705e-06
1.04888e-06
1.04963e-06
1.04862e-06
1.04705e-06
1.04706e-06
1.04706e-06
1.04707e-06
1.04707e-06
1.04707e-06
1.04706e-06
1.04706e-06
1.04705e-06
1.04888e-06
1.04963e-06
1.04943e-06
1.04845e-06
1.04705e-06
1.04706e-06
1.04706e-06
1.04707e-06
1.04706e-06
1.04706e-06
1.04705e-06
1.04866e-06
1.04889e-06
1.04961e-06
1.04946e-06
1.04876e-06
1.04843e-06
1.04705e-06
1.04706e-06
1.04706e-06
1.04706e-06
1.04705e-06
1.04863e-06
1.04881e-06
1.04894e-06
1.04945e-06
1.04876e-06
1.04845e-06
1.04705e-06
1.04705e-06
1.04705e-06
1.04866e-06
1.04881e-06
1.04892e-06
1.0496e-06
1.04945e-06
1.04885e-06
1.04889e-06
1.04888e-06
1.04888e-06
1.04889e-06
1.04894e-06
1.0496e-06
1.04948e-06
1.04962e-06
1.04963e-06
1.04963e-06
1.04961e-06
1.04013e-06
1.03934e-06
1.03928e-06
1.03933e-06
1.04013e-06
1.04017e-06
1.04016e-06
1.03945e-06
1.03901e-06
1.03775e-06
1.03775e-06
1.03775e-06
1.03915e-06
1.03947e-06
1.04015e-06
1.03945e-06
1.03897e-06
1.03775e-06
1.03776e-06
1.03776e-06
1.03776e-06
1.03775e-06
1.03913e-06
1.03946e-06
1.04016e-06
1.04013e-06
1.03901e-06
1.03775e-06
1.03776e-06
1.03776e-06
1.03776e-06
1.03776e-06
1.03776e-06
1.03775e-06
1.03916e-06
1.03955e-06
1.04018e-06
1.03934e-06
1.03775e-06
1.03776e-06
1.03776e-06
1.03776e-06
1.03776e-06
1.03776e-06
1.03776e-06
1.03776e-06
1.03775e-06
1.03959e-06
1.04032e-06
1.03928e-06
1.03775e-06
1.03776e-06
1.03776e-06
1.03776e-06
1.03777e-06
1.03776e-06
1.03776e-06
1.03776e-06
1.03775e-06
1.03958e-06
1.04034e-06
1.03933e-06
1.03775e-06
1.03776e-06
1.03776e-06
1.03776e-06
1.03776e-06
1.03776e-06
1.03776e-06
1.03776e-06
1.03775e-06
1.03959e-06
1.04034e-06
1.04013e-06
1.03915e-06
1.03775e-06
1.03776e-06
1.03776e-06
1.03776e-06
1.03776e-06
1.03776e-06
1.03775e-06
1.03937e-06
1.03959e-06
1.04032e-06
1.04017e-06
1.03947e-06
1.03913e-06
1.03775e-06
1.03776e-06
1.03776e-06
1.03776e-06
1.03775e-06
1.03933e-06
1.03951e-06
1.03964e-06
1.04015e-06
1.03946e-06
1.03916e-06
1.03775e-06
1.03775e-06
1.03775e-06
1.03937e-06
1.03951e-06
1.03962e-06
1.0403e-06
1.04016e-06
1.03955e-06
1.03959e-06
1.03958e-06
1.03959e-06
1.03959e-06
1.03964e-06
1.0403e-06
1.04018e-06
1.04032e-06
1.04034e-06
1.04034e-06
1.04032e-06
1.03084e-06
1.03005e-06
1.02998e-06
1.03003e-06
1.03084e-06
1.03087e-06
1.03086e-06
1.03016e-06
1.02971e-06
1.02845e-06
1.02846e-06
1.02845e-06
1.02986e-06
1.03017e-06
1.03086e-06
1.03016e-06
1.02967e-06
1.02846e-06
1.02846e-06
1.02846e-06
1.02846e-06
1.02846e-06
1.02984e-06
1.03017e-06
1.03086e-06
1.03084e-06
1.02971e-06
1.02846e-06
1.02846e-06
1.02846e-06
1.02846e-06
1.02846e-06
1.02846e-06
1.02846e-06
1.02986e-06
1.03025e-06
1.03089e-06
1.03005e-06
1.02845e-06
1.02846e-06
1.02846e-06
1.02846e-06
1.02846e-06
1.02846e-06
1.02846e-06
1.02846e-06
1.02845e-06
1.0303e-06
1.03103e-06
1.02998e-06
1.02846e-06
1.02846e-06
1.02846e-06
1.02846e-06
1.02846e-06
1.02846e-06
1.02846e-06
1.02846e-06
1.02846e-06
1.03029e-06
1.03104e-06
1.03003e-06
1.02845e-06
1.02846e-06
1.02846e-06
1.02846e-06
1.02846e-06
1.02846e-06
1.02846e-06
1.02846e-06
1.02845e-06
1.03029e-06
1.03104e-06
1.03084e-06
1.02986e-06
1.02846e-06
1.02846e-06
1.02846e-06
1.02846e-06
1.02846e-06
1.02846e-06
1.02846e-06
1.03007e-06
1.0303e-06
1.03102e-06
1.03087e-06
1.03017e-06
1.02984e-06
1.02846e-06
1.02846e-06
1.02846e-06
1.02846e-06
1.02846e-06
1.03004e-06
1.03022e-06
1.03035e-06
1.03086e-06
1.03017e-06
1.02986e-06
1.02845e-06
1.02846e-06
1.02845e-06
1.03007e-06
1.03022e-06
1.03032e-06
1.03101e-06
1.03086e-06
1.03025e-06
1.0303e-06
1.03029e-06
1.03029e-06
1.0303e-06
1.03035e-06
1.03101e-06
1.03089e-06
1.03103e-06
1.03104e-06
1.03104e-06
1.03102e-06
1.02154e-06
1.02075e-06
1.02068e-06
1.02073e-06
1.02154e-06
1.02157e-06
1.02156e-06
1.02086e-06
1.02041e-06
1.01916e-06
1.01916e-06
1.01916e-06
1.02056e-06
1.02087e-06
1.02156e-06
1.02086e-06
1.02038e-06
1.01916e-06
1.01916e-06
1.01916e-06
1.01916e-06
1.01916e-06
1.02054e-06
1.02087e-06
1.02156e-06
1.02154e-06
1.02041e-06
1.01916e-06
1.01916e-06
1.01916e-06
1.01916e-06
1.01916e-06
1.01916e-06
1.01916e-06
1.02056e-06
1.02096e-06
1.02159e-06
1.02075e-06
1.01916e-06
1.01916e-06
1.01916e-06
1.01916e-06
1.01916e-06
1.01916e-06
1.01916e-06
1.01916e-06
1.01916e-06
1.021e-06
1.02173e-06
1.02068e-06
1.01916e-06
1.01916e-06
1.01916e-06
1.01916e-06
1.01916e-06
1.01916e-06
1.01916e-06
1.01916e-06
1.01916e-06
1.02099e-06
1.02174e-06
1.02073e-06
1.01916e-06
1.01916e-06
1.01916e-06
1.01916e-06
1.01916e-06
1.01916e-06
1.01916e-06
1.01916e-06
1.01916e-06
1.02099e-06
1.02174e-06
1.02154e-06
1.02056e-06
1.01916e-06
1.01916e-06
1.01916e-06
1.01916e-06
1.01916e-06
1.01916e-06
1.01916e-06
1.02077e-06
1.021e-06
1.02173e-06
1.02157e-06
1.02087e-06
1.02054e-06
1.01916e-06
1.01916e-06
1.01916e-06
1.01916e-06
1.01916e-06
1.02074e-06
1.02092e-06
1.02105e-06
1.02156e-06
1.02087e-06
1.02056e-06
1.01916e-06
1.01916e-06
1.01916e-06
1.02077e-06
1.02092e-06
1.02103e-06
1.02171e-06
1.02156e-06
1.02096e-06
1.021e-06
1.02099e-06
1.02099e-06
1.021e-06
1.02105e-06
1.02171e-06
1.02159e-06
1.02173e-06
1.02174e-06
1.02174e-06
1.02173e-06
1.01225e-06
1.01145e-06
1.01139e-06
1.01144e-06
1.01224e-06
1.01228e-06
1.01227e-06
1.01156e-06
1.01112e-06
1.00986e-06
1.00986e-06
1.00986e-06
1.01126e-06
1.01158e-06
1.01226e-06
1.01156e-06
1.01108e-06
1.00986e-06
1.00986e-06
1.00986e-06
1.00986e-06
1.00986e-06
1.01124e-06
1.01158e-06
1.01227e-06
1.01225e-06
1.01112e-06
1.00986e-06
1.00986e-06
1.00986e-06
1.00986e-06
1.00986e-06
1.00986e-06
1.00986e-06
1.01127e-06
1.01166e-06
1.0123e-06
1.01145e-06
1.00986e-06
1.00986e-06
1.00986e-06
1.00986e-06
1.00986e-06
1.00986e-06
1.00986e-06
1.00986e-06
1.00986e-06
1.0117e-06
1.01243e-06
1.01139e-06
1.00986e-06
1.00986e-06
1.00986e-06
1.00986e-06
1.00986e-06
1.00986e-06
1.00986e-06
1.00986e-06
1.00986e-06
1.01169e-06
1.01245e-06
1.01144e-06
1.00986e-06
1.00986e-06
1.00986e-06
1.00986e-06
1.00986e-06
1.00986e-06
1.00986e-06
1.00986e-06
1.00986e-06
1.0117e-06
1.01245e-06
1.01224e-06
1.01126e-06
1.00986e-06
1.00986e-06
1.00986e-06
1.00986e-06
1.00986e-06
1.00986e-06
1.00986e-06
1.01148e-06
1.0117e-06
1.01243e-06
1.01228e-06
1.01158e-06
1.01124e-06
1.00986e-06
1.00986e-06
1.00986e-06
1.00986e-06
1.00986e-06
1.01144e-06
1.01162e-06
1.01175e-06
1.01226e-06
1.01158e-06
1.01127e-06
1.00986e-06
1.00986e-06
1.00986e-06
1.01148e-06
1.01162e-06
1.01173e-06
1.01241e-06
1.01227e-06
1.01166e-06
1.0117e-06
1.01169e-06
1.0117e-06
1.0117e-06
1.01175e-06
1.01241e-06
1.0123e-06
1.01243e-06
1.01245e-06
1.01245e-06
1.01243e-06
1.00295e-06
1.00216e-06
1.00209e-06
1.00214e-06
1.00295e-06
1.00298e-06
1.00297e-06
1.00227e-06
1.00182e-06
1.00056e-06
1.00056e-06
1.00056e-06
1.00197e-06
1.00228e-06
1.00297e-06
1.00227e-06
1.00178e-06
1.00056e-06
1.00057e-06
1.00056e-06
1.00057e-06
1.00056e-06
1.00195e-06
1.00228e-06
1.00297e-06
1.00295e-06
1.00182e-06
1.00056e-06
1.00057e-06
1.00056e-06
1.00057e-06
1.00056e-06
1.00057e-06
1.00056e-06
1.00197e-06
1.00236e-06
1.003e-06
1.00216e-06
1.00056e-06
1.00057e-06
1.00056e-06
1.00057e-06
1.00057e-06
1.00057e-06
1.00056e-06
1.00057e-06
1.00056e-06
1.00241e-06
1.00314e-06
1.00209e-06
1.00056e-06
1.00056e-06
1.00057e-06
1.00057e-06
1.00057e-06
1.00057e-06
1.00057e-06
1.00056e-06
1.00056e-06
1.0024e-06
1.00315e-06
1.00214e-06
1.00056e-06
1.00057e-06
1.00056e-06
1.00057e-06
1.00057e-06
1.00057e-06
1.00056e-06
1.00057e-06
1.00056e-06
1.0024e-06
1.00315e-06
1.00295e-06
1.00197e-06
1.00056e-06
1.00057e-06
1.00056e-06
1.00057e-06
1.00056e-06
1.00057e-06
1.00056e-06
1.00218e-06
1.00241e-06
1.00313e-06
1.00298e-06
1.00228e-06
1.00195e-06
1.00056e-06
1.00057e-06
1.00056e-06
1.00057e-06
1.00056e-06
1.00215e-06
1.00233e-06
1.00246e-06
1.00297e-06
1.00228e-06
1.00197e-06
1.00056e-06
1.00056e-06
1.00056e-06
1.00218e-06
1.00233e-06
1.00243e-06
1.00312e-06
1.00297e-06
1.00236e-06
1.00241e-06
1.0024e-06
1.0024e-06
1.00241e-06
1.00246e-06
1.00312e-06
1.003e-06
1.00314e-06
1.00315e-06
1.00315e-06
1.00313e-06
9.93652e-07
9.92859e-07
9.92794e-07
9.92842e-07
9.9365e-07
9.93684e-07
9.93674e-07
9.92972e-07
9.92522e-07
9.91267e-07
9.91268e-07
9.91267e-07
9.92671e-07
9.92984e-07
9.9367e-07
9.92972e-07
9.92486e-07
9.91268e-07
9.91269e-07
9.91268e-07
9.91269e-07
9.91268e-07
9.92648e-07
9.92982e-07
9.93673e-07
9.93652e-07
9.92522e-07
9.91268e-07
9.91268e-07
9.91268e-07
9.91268e-07
9.91268e-07
9.91268e-07
9.91268e-07
9.92673e-07
9.93067e-07
9.93702e-07
9.92859e-07
9.91267e-07
9.91269e-07
9.91268e-07
9.91269e-07
9.91268e-07
9.91269e-07
9.91268e-07
9.91269e-07
9.91267e-07
9.93112e-07
9.93842e-07
9.92794e-07
9.91268e-07
9.91268e-07
9.91268e-07
9.91268e-07
9.91269e-07
9.91268e-07
9.91268e-07
9.91268e-07
9.91268e-07
9.93099e-07
9.93854e-07
9.92842e-07
9.91267e-07
9.91269e-07
9.91268e-07
9.91269e-07
9.91268e-07
9.91269e-07
9.91268e-07
9.91269e-07
9.91267e-07
9.93104e-07
9.93854e-07
9.9365e-07
9.92671e-07
9.91268e-07
9.91268e-07
9.91268e-07
9.91268e-07
9.91268e-07
9.91268e-07
9.91268e-07
9.92884e-07
9.93111e-07
9.93836e-07
9.93684e-07
9.92984e-07
9.92648e-07
9.91268e-07
9.91269e-07
9.91268e-07
9.91269e-07
9.91268e-07
9.92851e-07
9.93029e-07
9.93162e-07
9.9367e-07
9.92982e-07
9.92673e-07
9.91267e-07
9.91268e-07
9.91267e-07
9.92884e-07
9.93029e-07
9.93137e-07
9.93819e-07
9.93673e-07
9.93067e-07
9.93112e-07
9.93099e-07
9.93104e-07
9.93111e-07
9.93162e-07
9.93819e-07
9.93702e-07
9.93842e-07
9.93854e-07
9.93854e-07
9.93836e-07
9.84356e-07
9.83562e-07
9.83497e-07
9.83546e-07
9.84354e-07
9.84387e-07
9.84378e-07
9.83675e-07
9.83225e-07
9.8197e-07
9.81971e-07
9.8197e-07
9.83375e-07
9.83688e-07
9.84373e-07
9.83675e-07
9.8319e-07
9.81971e-07
9.81972e-07
9.81971e-07
9.81972e-07
9.81971e-07
9.83352e-07
9.83685e-07
9.84377e-07
9.84356e-07
9.83225e-07
9.81971e-07
9.81972e-07
9.81971e-07
9.81971e-07
9.81971e-07
9.81972e-07
9.81971e-07
9.83377e-07
9.8377e-07
9.84405e-07
9.83562e-07
9.8197e-07
9.81972e-07
9.81971e-07
9.81972e-07
9.81971e-07
9.81972e-07
9.81971e-07
9.81972e-07
9.8197e-07
9.83815e-07
9.84545e-07
9.83497e-07
9.81971e-07
9.81971e-07
9.81971e-07
9.81971e-07
9.81972e-07
9.81971e-07
9.81971e-07
9.81971e-07
9.81971e-07
9.83803e-07
9.84557e-07
9.83546e-07
9.8197e-07
9.81972e-07
9.81971e-07
9.81972e-07
9.81971e-07
9.81972e-07
9.81971e-07
9.81972e-07
9.8197e-07
9.83807e-07
9.84558e-07
9.84354e-07
9.83375e-07
9.81971e-07
9.81972e-07
9.81971e-07
9.81971e-07
9.81971e-07
9.81972e-07
9.81971e-07
9.83587e-07
9.83814e-07
9.8454e-07
9.84387e-07
9.83688e-07
9.83352e-07
9.81971e-07
9.81972e-07
9.81971e-07
9.81972e-07
9.81971e-07
9.83554e-07
9.83732e-07
9.83865e-07
9.84373e-07
9.83685e-07
9.83377e-07
9.8197e-07
9.81971e-07
9.8197e-07
9.83587e-07
9.83732e-07
9.83841e-07
9.84523e-07
9.84377e-07
9.8377e-07
9.83815e-07
9.83803e-07
9.83807e-07
9.83814e-07
9.83865e-07
9.84523e-07
9.84405e-07
9.84545e-07
9.84557e-07
9.84558e-07
9.8454e-07
9.75059e-07
9.74266e-07
9.74201e-07
9.74249e-07
9.75057e-07
9.75091e-07
9.75081e-07
9.74378e-07
9.73928e-07
9.72674e-07
9.72674e-07
9.72674e-07
9.74078e-07
9.74391e-07
9.75077e-07
9.74379e-07
9.73893e-07
9.72674e-07
9.72675e-07
9.72674e-07
9.72675e-07
9.72674e-07
9.74055e-07
9.74389e-07
9.7508e-07
9.75059e-07
9.73929e-07
9.72674e-07
9.72675e-07
9.72674e-07
9.72675e-07
9.72674e-07
9.72675e-07
9.72674e-07
9.7408e-07
9.74474e-07
9.75109e-07
9.74266e-07
9.72674e-07
9.72675e-07
9.72674e-07
9.72676e-07
9.72675e-07
9.72675e-07
9.72674e-07
9.72675e-07
9.72674e-07
9.74518e-07
9.75248e-07
9.74201e-07
9.72674e-07
9.72674e-07
9.72675e-07
9.72675e-07
9.72675e-07
9.72675e-07
9.72675e-07
9.72674e-07
9.72674e-07
9.74506e-07
9.7526e-07
9.74249e-07
9.72674e-07
9.72675e-07
9.72674e-07
9.72676e-07
9.72675e-07
9.72675e-07
9.72674e-07
9.72675e-07
9.72674e-07
9.74511e-07
9.75261e-07
9.75057e-07
9.74078e-07
9.72674e-07
9.72675e-07
9.72674e-07
9.72675e-07
9.72674e-07
9.72675e-07
9.72674e-07
9.74291e-07
9.74517e-07
9.75243e-07
9.75091e-07
9.74391e-07
9.74055e-07
9.72674e-07
9.72675e-07
9.72674e-07
9.72675e-07
9.72674e-07
9.74257e-07
9.74436e-07
9.74568e-07
9.75077e-07
9.74389e-07
9.7408e-07
9.72674e-07
9.72674e-07
9.72674e-07
9.74291e-07
9.74436e-07
9.74544e-07
9.75226e-07
9.7508e-07
9.74474e-07
9.74518e-07
9.74506e-07
9.74511e-07
9.74517e-07
9.74568e-07
9.75226e-07
9.75109e-07
9.75248e-07
9.7526e-07
9.75261e-07
9.75243e-07
9.65762e-07
9.64969e-07
9.64904e-07
9.64953e-07
9.6576e-07
9.65794e-07
9.65785e-07
9.65082e-07
9.64632e-07
9.63377e-07
9.63378e-07
9.63377e-07
9.64781e-07
9.65095e-07
9.6578e-07
9.65082e-07
9.64596e-07
9.63378e-07
9.63379e-07
9.63378e-07
9.63379e-07
9.63378e-07
9.64759e-07
9.65092e-07
9.65783e-07
9.65762e-07
9.64632e-07
9.63378e-07
9.63378e-07
9.63378e-07
9.63378e-07
9.63378e-07
9.63378e-07
9.63377e-07
9.64783e-07
9.65177e-07
9.65812e-07
9.64969e-07
9.63377e-07
9.63379e-07
9.63378e-07
9.63379e-07
9.63378e-07
9.63379e-07
9.63378e-07
9.63379e-07
9.63377e-07
9.65222e-07
9.65952e-07
9.64904e-07
9.63378e-07
9.63378e-07
9.63378e-07
9.63378e-07
9.63378e-07
9.63378e-07
9.63378e-07
9.63378e-07
9.63378e-07
9.65209e-07
9.65964e-07
9.64953e-07
9.63377e-07
9.63379e-07
9.63378e-07
9.63379e-07
9.63378e-07
9.63379e-07
9.63378e-07
9.63379e-07
9.63377e-07
9.65214e-07
9.65964e-07
9.6576e-07
9.64781e-07
9.63378e-07
9.63378e-07
9.63378e-07
9.63378e-07
9.63378e-07
9.63378e-07
9.63377e-07
9.64994e-07
9.65221e-07
9.65946e-07
9.65794e-07
9.65095e-07
9.64759e-07
9.63378e-07
9.63379e-07
9.63378e-07
9.63379e-07
9.63377e-07
9.64961e-07
9.65139e-07
9.65272e-07
9.6578e-07
9.65092e-07
9.64783e-07
9.63377e-07
9.63378e-07
9.63377e-07
9.64994e-07
9.65139e-07
9.65247e-07
9.65929e-07
9.65783e-07
9.65177e-07
9.65222e-07
9.65209e-07
9.65214e-07
9.65221e-07
9.65272e-07
9.65929e-07
9.65812e-07
9.65952e-07
9.65964e-07
9.65964e-07
9.65946e-07
9.56466e-07
9.55673e-07
9.55607e-07
9.55656e-07
9.56464e-07
9.56497e-07
9.56488e-07
9.55785e-07
9.55335e-07
9.54081e-07
9.54081e-07
9.54081e-07
9.55485e-07
9.55798e-07
9.56483e-07
9.55785e-07
9.553e-07
9.54081e-07
9.54082e-07
9.54081e-07
9.54082e-07
9.54081e-07
9.55462e-07
9.55796e-07
9.56487e-07
9.56466e-07
9.55335e-07
9.54081e-07
9.54082e-07
9.54081e-07
9.54081e-07
9.54081e-07
9.54082e-07
9.54081e-07
9.55487e-07
9.55881e-07
9.56516e-07
9.55673e-07
9.54081e-07
9.54082e-07
9.54081e-07
9.54082e-07
9.54081e-07
9.54082e-07
9.54081e-07
9.54082e-07
9.54081e-07
9.55925e-07
9.56655e-07
9.55607e-07
9.54081e-07
9.54081e-07
9.54081e-07
9.54081e-07
9.54081e-07
9.54081e-07
9.54081e-07
9.54081e-07
9.54081e-07
9.55913e-07
9.56667e-07
9.55656e-07
9.54081e-07
9.54082e-07
9.54081e-07
9.54082e-07
9.54081e-07
9.54082e-07
9.54081e-07
9.54082e-07
9.54081e-07
9.55918e-07
9.56668e-07
9.56464e-07
9.55485e-07
9.54081e-07
9.54082e-07
9.54081e-07
9.54081e-07
9.54081e-07
9.54082e-07
9.54081e-07
9.55698e-07
9.55924e-07
9.5665e-07
9.56497e-07
9.55798e-07
9.55462e-07
9.54081e-07
9.54082e-07
9.54081e-07
9.54082e-07
9.54081e-07
9.55664e-07
9.55843e-07
9.55975e-07
9.56483e-07
9.55796e-07
9.55487e-07
9.54081e-07
9.54081e-07
9.54081e-07
9.55698e-07
9.55843e-07
9.55951e-07
9.56633e-07
9.56487e-07
9.55881e-07
9.55925e-07
9.55913e-07
9.55918e-07
9.55924e-07
9.55975e-07
9.56633e-07
9.56516e-07
9.56655e-07
9.56667e-07
9.56668e-07
9.5665e-07
9.47169e-07
9.46376e-07
9.46311e-07
9.46359e-07
9.47167e-07
9.47201e-07
9.47191e-07
9.46488e-07
9.46039e-07
9.44784e-07
9.44784e-07
9.44784e-07
9.46188e-07
9.46501e-07
9.47187e-07
9.46489e-07
9.46003e-07
9.44784e-07
9.44786e-07
9.44785e-07
9.44786e-07
9.44784e-07
9.46165e-07
9.46499e-07
9.4719e-07
9.47169e-07
9.46039e-07
9.44784e-07
9.44785e-07
9.44784e-07
9.44785e-07
9.44784e-07
9.44785e-07
9.44784e-07
9.4619e-07
9.46584e-07
9.47219e-07
9.46376e-07
9.44784e-07
9.44786e-07
9.44784e-07
9.44785e-07
9.44784e-07
9.44785e-07
9.44784e-07
9.44786e-07
9.44784e-07
9.46629e-07
9.47358e-07
9.46311e-07
9.44784e-07
9.44785e-07
9.44785e-07
9.44784e-07
9.44785e-07
9.44784e-07
9.44785e-07
9.44785e-07
9.44785e-07
9.46616e-07
9.4737e-07
9.46359e-07
9.44784e-07
9.44786e-07
9.44784e-07
9.44785e-07
9.44784e-07
9.44785e-07
9.44784e-07
9.44786e-07
9.44784e-07
9.46621e-07
9.47371e-07
9.47167e-07
9.46188e-07
9.44784e-07
9.44785e-07
9.44784e-07
9.44785e-07
9.44784e-07
9.44785e-07
9.44784e-07
9.46401e-07
9.46628e-07
9.47353e-07
9.47201e-07
9.46501e-07
9.46165e-07
9.44784e-07
9.44786e-07
9.44785e-07
9.44786e-07
9.44784e-07
9.46368e-07
9.46546e-07
9.46679e-07
9.47187e-07
9.46499e-07
9.4619e-07
9.44784e-07
9.44785e-07
9.44784e-07
9.46401e-07
9.46546e-07
9.46654e-07
9.47336e-07
9.4719e-07
9.46584e-07
9.46629e-07
9.46616e-07
9.46621e-07
9.46628e-07
9.46679e-07
9.47336e-07
9.47219e-07
9.47358e-07
9.4737e-07
9.47371e-07
9.47353e-07
9.37873e-07
9.37079e-07
9.37014e-07
9.37063e-07
9.3787e-07
9.37904e-07
9.37895e-07
9.37192e-07
9.36742e-07
9.35487e-07
9.35488e-07
9.35487e-07
9.36892e-07
9.37205e-07
9.3789e-07
9.37192e-07
9.36706e-07
9.35488e-07
9.35489e-07
9.35488e-07
9.35489e-07
9.35488e-07
9.36869e-07
9.37202e-07
9.37894e-07
9.37872e-07
9.36742e-07
9.35488e-07
9.35488e-07
9.35488e-07
9.35488e-07
9.35488e-07
9.35488e-07
9.35488e-07
9.36893e-07
9.37287e-07
9.37922e-07
9.37079e-07
9.35487e-07
9.35489e-07
9.35488e-07
9.35489e-07
9.35488e-07
9.35489e-07
9.35488e-07
9.35489e-07
9.35487e-07
9.37332e-07
9.38062e-07
9.37014e-07
9.35488e-07
9.35488e-07
9.35488e-07
9.35488e-07
9.35488e-07
9.35488e-07
9.35488e-07
9.35488e-07
9.35488e-07
9.3732e-07
9.38074e-07
9.37063e-07
9.35487e-07
9.35489e-07
9.35488e-07
9.35489e-07
9.35488e-07
9.35489e-07
9.35488e-07
9.35489e-07
9.35487e-07
9.37324e-07
9.38074e-07
9.3787e-07
9.36892e-07
9.35488e-07
9.35488e-07
9.35488e-07
9.35488e-07
9.35488e-07
9.35488e-07
9.35488e-07
9.37104e-07
9.37331e-07
9.38057e-07
9.37904e-07
9.37205e-07
9.36869e-07
9.35488e-07
9.35489e-07
9.35488e-07
9.35489e-07
9.35488e-07
9.37071e-07
9.37249e-07
9.37382e-07
9.3789e-07
9.37202e-07
9.36893e-07
9.35487e-07
9.35488e-07
9.35487e-07
9.37104e-07
9.37249e-07
9.37358e-07
9.3804e-07
9.37894e-07
9.37287e-07
9.37332e-07
9.3732e-07
9.37324e-07
9.37331e-07
9.37382e-07
9.3804e-07
9.37922e-07
9.38062e-07
9.38074e-07
9.38074e-07
9.38057e-07
9.28576e-07
9.27783e-07
9.27718e-07
9.27766e-07
9.28574e-07
9.28607e-07
9.28598e-07
9.27895e-07
9.27445e-07
9.26191e-07
9.26191e-07
9.26191e-07
9.27595e-07
9.27908e-07
9.28594e-07
9.27895e-07
9.2741e-07
9.26191e-07
9.26192e-07
9.26191e-07
9.26192e-07
9.26191e-07
9.27572e-07
9.27906e-07
9.28597e-07
9.28576e-07
9.27445e-07
9.26191e-07
9.26192e-07
9.26191e-07
9.26191e-07
9.26191e-07
9.26192e-07
9.26191e-07
9.27597e-07
9.27991e-07
9.28626e-07
9.27783e-07
9.26191e-07
9.26192e-07
9.26191e-07
9.26192e-07
9.26191e-07
9.26192e-07
9.26191e-07
9.26192e-07
9.26191e-07
9.28035e-07
9.28765e-07
9.27718e-07
9.26191e-07
9.26191e-07
9.26191e-07
9.26191e-07
9.26191e-07
9.26191e-07
9.26191e-07
9.26191e-07
9.26191e-07
9.28023e-07
9.28777e-07
9.27766e-07
9.26191e-07
9.26192e-07
9.26191e-07
9.26192e-07
9.26191e-07
9.26192e-07
9.26191e-07
9.26192e-07
9.26191e-07
9.28028e-07
9.28778e-07
9.28574e-07
9.27595e-07
9.26191e-07
9.26192e-07
9.26191e-07
9.26191e-07
9.26191e-07
9.26192e-07
9.26191e-07
9.27808e-07
9.28034e-07
9.2876e-07
9.28607e-07
9.27908e-07
9.27572e-07
9.26191e-07
9.26192e-07
9.26191e-07
9.26192e-07
9.26191e-07
9.27774e-07
9.27953e-07
9.28085e-07
9.28594e-07
9.27906e-07
9.27597e-07
9.26191e-07
9.26191e-07
9.26191e-07
9.27808e-07
9.27953e-07
9.28061e-07
9.28743e-07
9.28597e-07
9.27991e-07
9.28035e-07
9.28023e-07
9.28028e-07
9.28034e-07
9.28085e-07
9.28743e-07
9.28626e-07
9.28765e-07
9.28777e-07
9.28778e-07
9.2876e-07
9.19279e-07
9.18486e-07
9.18421e-07
9.18469e-07
9.19277e-07
9.19311e-07
9.19302e-07
9.18599e-07
9.18149e-07
9.16894e-07
9.16895e-07
9.16894e-07
9.18298e-07
9.18612e-07
9.19297e-07
9.18599e-07
9.18113e-07
9.16894e-07
9.16896e-07
9.16895e-07
9.16896e-07
9.16894e-07
9.18275e-07
9.18609e-07
9.193e-07
9.19279e-07
9.18149e-07
9.16894e-07
9.16895e-07
9.16894e-07
9.16895e-07
9.16894e-07
9.16895e-07
9.16894e-07
9.183e-07
9.18694e-07
9.19329e-07
9.18486e-07
9.16894e-07
9.16896e-07
9.16894e-07
9.16896e-07
9.16895e-07
9.16896e-07
9.16894e-07
9.16896e-07
9.16894e-07
9.18739e-07
9.19469e-07
9.18421e-07
9.16895e-07
9.16895e-07
9.16895e-07
9.16895e-07
9.16895e-07
9.16895e-07
9.16895e-07
9.16895e-07
9.16895e-07
9.18726e-07
9.1948e-07
9.18469e-07