/*--------------------------------*- C++ -*----------------------------------*\
| =========                 |                                                 |
| \\      /  F ield         | OpenFOAM: The Open Source CFD Toolbox           |
|  \\    /   O peration     | Version:  v2012                                 |
|   \\  /    A nd           | Website:  www.openfoam.com                      |
|    \\/     M anipulation  |                                                 |
\*---------------------------------------------------------------------------*/
FoamFile
{
    version     2.0;
    format      ascii;
    class       volScalarField;
    location    "22";
    object      p;
}
// * * * * * * * * * * * * * * * * * * * * * * * * * * * * * * * * * * * * * //

dimensions      [0 2 -2 0 0 0 0];


internalField   nonuniform List<scalar> 
292667
(
1.56682e-06
1.55511e-06
1.55408e-06
1.55419e-06
1.55565e-06
1.56783e-06
1.55534e-06
1.55167e-06
1.54958e-06
1.54872e-06
1.54884e-06
1.54996e-06
1.55241e-06
1.55646e-06
1.55534e-06
1.5506e-06
1.54774e-06
1.54618e-06
1.54553e-06
1.54562e-06
1.54647e-06
1.5483e-06
1.55157e-06
1.5568e-06
1.56682e-06
1.55167e-06
1.54774e-06
1.54546e-06
1.54418e-06
1.54363e-06
1.5437e-06
1.54442e-06
1.54591e-06
1.54852e-06
1.55299e-06
1.56716e-06
1.55511e-06
1.54958e-06
1.54618e-06
1.54418e-06
1.54304e-06
1.54254e-06
1.54261e-06
1.54325e-06
1.54458e-06
1.54687e-06
1.55074e-06
1.56005e-06
1.55408e-06
1.54872e-06
1.54553e-06
1.54363e-06
1.54254e-06
1.54207e-06
1.54214e-06
1.54275e-06
1.54401e-06
1.54617e-06
1.54983e-06
1.55777e-06
1.55418e-06
1.54884e-06
1.54562e-06
1.5437e-06
1.54261e-06
1.54214e-06
1.5422e-06
1.54282e-06
1.54409e-06
1.54627e-06
1.54996e-06
1.55812e-06
1.55565e-06
1.54996e-06
1.54647e-06
1.54442e-06
1.54325e-06
1.54275e-06
1.54282e-06
1.54348e-06
1.54483e-06
1.54718e-06
1.55117e-06
1.56046e-06
1.56783e-06
1.55241e-06
1.5483e-06
1.54591e-06
1.54458e-06
1.54401e-06
1.54409e-06
1.54483e-06
1.54639e-06
1.54913e-06
1.55377e-06
1.56736e-06
1.55646e-06
1.55157e-06
1.54852e-06
1.54687e-06
1.54617e-06
1.54627e-06
1.54718e-06
1.54913e-06
1.55261e-06
1.56091e-06
1.5568e-06
1.55299e-06
1.55074e-06
1.54983e-06
1.54996e-06
1.55117e-06
1.55377e-06
1.5609e-06
1.56716e-06
1.56005e-06
1.55777e-06
1.55812e-06
1.56046e-06
1.56736e-06
1.53273e-06
1.5313e-06
1.53128e-06
1.53131e-06
1.53254e-06
1.53254e-06
1.53279e-06
1.53166e-06
1.53118e-06
1.52913e-06
1.5291e-06
1.52913e-06
1.53126e-06
1.53157e-06
1.53268e-06
1.53166e-06
1.53119e-06
1.52919e-06
1.52907e-06
1.52912e-06
1.52907e-06
1.52919e-06
1.53121e-06
1.53155e-06
1.53265e-06
1.53273e-06
1.53118e-06
1.52919e-06
1.52909e-06
1.52912e-06
1.52912e-06
1.52912e-06
1.52909e-06
1.52919e-06
1.53121e-06
1.53158e-06
1.53282e-06
1.5313e-06
1.52913e-06
1.52907e-06
1.52912e-06
1.5291e-06
1.52909e-06
1.5291e-06
1.52912e-06
1.52907e-06
1.52913e-06
1.5316e-06
1.53277e-06
1.53128e-06
1.5291e-06
1.52912e-06
1.52912e-06
1.52909e-06
1.52908e-06
1.52909e-06
1.52912e-06
1.52912e-06
1.5291e-06
1.53155e-06
1.53252e-06
1.53131e-06
1.52913e-06
1.52907e-06
1.52912e-06
1.5291e-06
1.52909e-06
1.5291e-06
1.52912e-06
1.52907e-06
1.52913e-06
1.53158e-06
1.53259e-06
1.53254e-06
1.53126e-06
1.52919e-06
1.52909e-06
1.52912e-06
1.52912e-06
1.52912e-06
1.52909e-06
1.52919e-06
1.53124e-06
1.5316e-06
1.53277e-06
1.53254e-06
1.53157e-06
1.53121e-06
1.52919e-06
1.52907e-06
1.52912e-06
1.52907e-06
1.52919e-06
1.53121e-06
1.53151e-06
1.53165e-06
1.53268e-06
1.53155e-06
1.53121e-06
1.52913e-06
1.5291e-06
1.52913e-06
1.53124e-06
1.53151e-06
1.53174e-06
1.53284e-06
1.53265e-06
1.53158e-06
1.5316e-06
1.53155e-06
1.53158e-06
1.5316e-06
1.53165e-06
1.53284e-06
1.53282e-06
1.53277e-06
1.53252e-06
1.53259e-06
1.53277e-06
1.51961e-06
1.5183e-06
1.51822e-06
1.51827e-06
1.5195e-06
1.51962e-06
1.51969e-06
1.51851e-06
1.51797e-06
1.51593e-06
1.51592e-06
1.51593e-06
1.51808e-06
1.51846e-06
1.51955e-06
1.51851e-06
1.51799e-06
1.51599e-06
1.51597e-06
1.51601e-06
1.51597e-06
1.51599e-06
1.51806e-06
1.51844e-06
1.51956e-06
1.51961e-06
1.51797e-06
1.516e-06
1.51599e-06
1.51606e-06
1.51607e-06
1.51606e-06
1.51599e-06
1.51599e-06
1.51805e-06
1.51851e-06
1.51967e-06
1.5183e-06
1.51593e-06
1.51597e-06
1.51606e-06
1.51609e-06
1.5161e-06
1.51609e-06
1.51606e-06
1.51597e-06
1.51593e-06
1.51848e-06
1.51972e-06
1.51822e-06
1.51592e-06
1.51601e-06
1.51607e-06
1.5161e-06
1.51611e-06
1.5161e-06
1.51607e-06
1.51601e-06
1.51592e-06
1.51844e-06
1.51968e-06
1.51827e-06
1.51593e-06
1.51597e-06
1.51606e-06
1.51609e-06
1.5161e-06
1.51609e-06
1.51606e-06
1.51597e-06
1.51593e-06
1.51846e-06
1.51968e-06
1.5195e-06
1.51808e-06
1.51599e-06
1.51599e-06
1.51606e-06
1.51607e-06
1.51606e-06
1.51599e-06
1.51599e-06
1.51814e-06
1.5185e-06
1.51975e-06
1.51962e-06
1.51846e-06
1.51806e-06
1.516e-06
1.51597e-06
1.51601e-06
1.51597e-06
1.51599e-06
1.51811e-06
1.51839e-06
1.51861e-06
1.51955e-06
1.51844e-06
1.51805e-06
1.51593e-06
1.51592e-06
1.51593e-06
1.51814e-06
1.51839e-06
1.51859e-06
1.51975e-06
1.51956e-06
1.51851e-06
1.51848e-06
1.51844e-06
1.51846e-06
1.5185e-06
1.51861e-06
1.51975e-06
1.51967e-06
1.51972e-06
1.51968e-06
1.51968e-06
1.51975e-06
1.50664e-06
1.50531e-06
1.50523e-06
1.50528e-06
1.50652e-06
1.50665e-06
1.50671e-06
1.50551e-06
1.50493e-06
1.50287e-06
1.50287e-06
1.50287e-06
1.50503e-06
1.50546e-06
1.50657e-06
1.50551e-06
1.50491e-06
1.50291e-06
1.50291e-06
1.50294e-06
1.50291e-06
1.50291e-06
1.50501e-06
1.50545e-06
1.50658e-06
1.50664e-06
1.50493e-06
1.50291e-06
1.50293e-06
1.50298e-06
1.50298e-06
1.50298e-06
1.50293e-06
1.50291e-06
1.50502e-06
1.50553e-06
1.5067e-06
1.50531e-06
1.50287e-06
1.50291e-06
1.50298e-06
1.503e-06
1.50302e-06
1.503e-06
1.50298e-06
1.50291e-06
1.50287e-06
1.50548e-06
1.50675e-06
1.50523e-06
1.50287e-06
1.50294e-06
1.50299e-06
1.50302e-06
1.50303e-06
1.50302e-06
1.50299e-06
1.50294e-06
1.50287e-06
1.50544e-06
1.5067e-06
1.50528e-06
1.50287e-06
1.50291e-06
1.50298e-06
1.503e-06
1.50302e-06
1.503e-06
1.50298e-06
1.50291e-06
1.50287e-06
1.50546e-06
1.50671e-06
1.50652e-06
1.50503e-06
1.50291e-06
1.50293e-06
1.50298e-06
1.50299e-06
1.50298e-06
1.50293e-06
1.50291e-06
1.50513e-06
1.50552e-06
1.50678e-06
1.50665e-06
1.50546e-06
1.50501e-06
1.50291e-06
1.50291e-06
1.50294e-06
1.50291e-06
1.50291e-06
1.5051e-06
1.5054e-06
1.50563e-06
1.50657e-06
1.50545e-06
1.50502e-06
1.50287e-06
1.50287e-06
1.50287e-06
1.50513e-06
1.5054e-06
1.5056e-06
1.50678e-06
1.50658e-06
1.50553e-06
1.50548e-06
1.50544e-06
1.50546e-06
1.50552e-06
1.50563e-06
1.50678e-06
1.5067e-06
1.50675e-06
1.5067e-06
1.50671e-06
1.50678e-06
1.49365e-06
1.49232e-06
1.49224e-06
1.49229e-06
1.49354e-06
1.49367e-06
1.49373e-06
1.49251e-06
1.49192e-06
1.48986e-06
1.48986e-06
1.48986e-06
1.49203e-06
1.49247e-06
1.49359e-06
1.49251e-06
1.4919e-06
1.48988e-06
1.48988e-06
1.4899e-06
1.48988e-06
1.48988e-06
1.492e-06
1.49246e-06
1.4936e-06
1.49365e-06
1.49192e-06
1.48988e-06
1.48989e-06
1.48992e-06
1.48993e-06
1.48992e-06
1.48989e-06
1.48988e-06
1.49201e-06
1.49254e-06
1.49372e-06
1.49232e-06
1.48986e-06
1.48988e-06
1.48992e-06
1.48994e-06
1.48995e-06
1.48994e-06
1.48992e-06
1.48988e-06
1.48986e-06
1.49249e-06
1.49377e-06
1.49224e-06
1.48986e-06
1.4899e-06
1.48993e-06
1.48995e-06
1.48996e-06
1.48995e-06
1.48993e-06
1.4899e-06
1.48986e-06
1.49245e-06
1.49372e-06
1.49229e-06
1.48986e-06
1.48988e-06
1.48992e-06
1.48994e-06
1.48995e-06
1.48994e-06
1.48992e-06
1.48988e-06
1.48986e-06
1.49247e-06
1.49372e-06
1.49354e-06
1.49203e-06
1.48988e-06
1.48989e-06
1.48992e-06
1.48993e-06
1.48992e-06
1.48989e-06
1.48988e-06
1.49214e-06
1.49254e-06
1.49379e-06
1.49367e-06
1.49247e-06
1.492e-06
1.48988e-06
1.48988e-06
1.4899e-06
1.48988e-06
1.48988e-06
1.4921e-06
1.49241e-06
1.49265e-06
1.49359e-06
1.49246e-06
1.49201e-06
1.48986e-06
1.48986e-06
1.48986e-06
1.49214e-06
1.49241e-06
1.49262e-06
1.4938e-06
1.4936e-06
1.49254e-06
1.49249e-06
1.49245e-06
1.49247e-06
1.49254e-06
1.49265e-06
1.4938e-06
1.49372e-06
1.49377e-06
1.49372e-06
1.49372e-06
1.49379e-06
1.48067e-06
1.47934e-06
1.47925e-06
1.4793e-06
1.48055e-06
1.48068e-06
1.48074e-06
1.47952e-06
1.47893e-06
1.47686e-06
1.47686e-06
1.47686e-06
1.47903e-06
1.47948e-06
1.48061e-06
1.47952e-06
1.4789e-06
1.47687e-06
1.47687e-06
1.47688e-06
1.47687e-06
1.47687e-06
1.479e-06
1.47947e-06
1.48061e-06
1.48067e-06
1.47893e-06
1.47687e-06
1.47688e-06
1.4769e-06
1.4769e-06
1.4769e-06
1.47688e-06
1.47687e-06
1.47902e-06
1.47956e-06
1.48073e-06
1.47934e-06
1.47686e-06
1.47687e-06
1.4769e-06
1.47691e-06
1.47691e-06
1.47691e-06
1.4769e-06
1.47687e-06
1.47686e-06
1.4795e-06
1.48078e-06
1.47925e-06
1.47686e-06
1.47688e-06
1.4769e-06
1.47691e-06
1.47692e-06
1.47691e-06
1.4769e-06
1.47688e-06
1.47686e-06
1.47946e-06
1.48073e-06
1.4793e-06
1.47686e-06
1.47687e-06
1.4769e-06
1.47691e-06
1.47691e-06
1.47691e-06
1.4769e-06
1.47687e-06
1.47686e-06
1.47948e-06
1.48074e-06
1.48055e-06
1.47903e-06
1.47687e-06
1.47688e-06
1.4769e-06
1.4769e-06
1.4769e-06
1.47688e-06
1.47687e-06
1.47914e-06
1.47955e-06
1.48081e-06
1.48068e-06
1.47948e-06
1.479e-06
1.47687e-06
1.47687e-06
1.47688e-06
1.47687e-06
1.47687e-06
1.4791e-06
1.47942e-06
1.47966e-06
1.48061e-06
1.47947e-06
1.47902e-06
1.47686e-06
1.47686e-06
1.47686e-06
1.47914e-06
1.47942e-06
1.47963e-06
1.48081e-06
1.48061e-06
1.47956e-06
1.4795e-06
1.47946e-06
1.47948e-06
1.47955e-06
1.47966e-06
1.48081e-06
1.48073e-06
1.48078e-06
1.48073e-06
1.48074e-06
1.48081e-06
1.46768e-06
1.46635e-06
1.46626e-06
1.46631e-06
1.46756e-06
1.46769e-06
1.46775e-06
1.46653e-06
1.46594e-06
1.46386e-06
1.46387e-06
1.46386e-06
1.46604e-06
1.46649e-06
1.46762e-06
1.46653e-06
1.46591e-06
1.46387e-06
1.46387e-06
1.46388e-06
1.46387e-06
1.46387e-06
1.46601e-06
1.46648e-06
1.46763e-06
1.46768e-06
1.46594e-06
1.46387e-06
1.46388e-06
1.46388e-06
1.46389e-06
1.46388e-06
1.46388e-06
1.46387e-06
1.46603e-06
1.46657e-06
1.46775e-06
1.46635e-06
1.46386e-06
1.46387e-06
1.46388e-06
1.46389e-06
1.4639e-06
1.46389e-06
1.46388e-06
1.46387e-06
1.46386e-06
1.46651e-06
1.46779e-06
1.46626e-06
1.46387e-06
1.46388e-06
1.46389e-06
1.4639e-06
1.4639e-06
1.4639e-06
1.46389e-06
1.46388e-06
1.46387e-06
1.46647e-06
1.46774e-06
1.46631e-06
1.46386e-06
1.46387e-06
1.46388e-06
1.46389e-06
1.4639e-06
1.46389e-06
1.46388e-06
1.46387e-06
1.46386e-06
1.46649e-06
1.46775e-06
1.46756e-06
1.46604e-06
1.46387e-06
1.46388e-06
1.46388e-06
1.46389e-06
1.46388e-06
1.46388e-06
1.46387e-06
1.46615e-06
1.46656e-06
1.46782e-06
1.46769e-06
1.46649e-06
1.46601e-06
1.46387e-06
1.46387e-06
1.46388e-06
1.46387e-06
1.46387e-06
1.46611e-06
1.46643e-06
1.46667e-06
1.46762e-06
1.46648e-06
1.46603e-06
1.46386e-06
1.46387e-06
1.46386e-06
1.46615e-06
1.46643e-06
1.46664e-06
1.46782e-06
1.46763e-06
1.46657e-06
1.46651e-06
1.46647e-06
1.46649e-06
1.46656e-06
1.46667e-06
1.46782e-06
1.46775e-06
1.46779e-06
1.46774e-06
1.46775e-06
1.46782e-06
1.45469e-06
1.45336e-06
1.45327e-06
1.45332e-06
1.45457e-06
1.45471e-06
1.45476e-06
1.45355e-06
1.45295e-06
1.45087e-06
1.45087e-06
1.45087e-06
1.45305e-06
1.4535e-06
1.45463e-06
1.45355e-06
1.45292e-06
1.45088e-06
1.45088e-06
1.45088e-06
1.45088e-06
1.45088e-06
1.45302e-06
1.45349e-06
1.45464e-06
1.45469e-06
1.45295e-06
1.45088e-06
1.45088e-06
1.45088e-06
1.45089e-06
1.45088e-06
1.45088e-06
1.45088e-06
1.45304e-06
1.45358e-06
1.45476e-06
1.45336e-06
1.45087e-06
1.45088e-06
1.45088e-06
1.45089e-06
1.45089e-06
1.45089e-06
1.45088e-06
1.45088e-06
1.45087e-06
1.45352e-06
1.4548e-06
1.45327e-06
1.45087e-06
1.45088e-06
1.45089e-06
1.45089e-06
1.45089e-06
1.45089e-06
1.45089e-06
1.45088e-06
1.45087e-06
1.45348e-06
1.45476e-06
1.45332e-06
1.45087e-06
1.45088e-06
1.45088e-06
1.45089e-06
1.45089e-06
1.45089e-06
1.45088e-06
1.45088e-06
1.45087e-06
1.4535e-06
1.45476e-06
1.45457e-06
1.45305e-06
1.45088e-06
1.45088e-06
1.45088e-06
1.45089e-06
1.45088e-06
1.45088e-06
1.45088e-06
1.45316e-06
1.45357e-06
1.45483e-06
1.45471e-06
1.4535e-06
1.45302e-06
1.45088e-06
1.45088e-06
1.45088e-06
1.45088e-06
1.45088e-06
1.45312e-06
1.45344e-06
1.45369e-06
1.45463e-06
1.45349e-06
1.45304e-06
1.45087e-06
1.45087e-06
1.45087e-06
1.45316e-06
1.45344e-06
1.45365e-06
1.45484e-06
1.45464e-06
1.45358e-06
1.45352e-06
1.45348e-06
1.4535e-06
1.45357e-06
1.45369e-06
1.45484e-06
1.45476e-06
1.4548e-06
1.45476e-06
1.45476e-06
1.45483e-06
1.4417e-06
1.44037e-06
1.44028e-06
1.44033e-06
1.44158e-06
1.44172e-06
1.44177e-06
1.44056e-06
1.43996e-06
1.43788e-06
1.43788e-06
1.43788e-06
1.44006e-06
1.44051e-06
1.44164e-06
1.44056e-06
1.43993e-06
1.43788e-06
1.43789e-06
1.43789e-06
1.43789e-06
1.43788e-06
1.44003e-06
1.4405e-06
1.44165e-06
1.4417e-06
1.43996e-06
1.43788e-06
1.43789e-06
1.43789e-06
1.43789e-06
1.43789e-06
1.43789e-06
1.43788e-06
1.44005e-06
1.44059e-06
1.44177e-06
1.44037e-06
1.43788e-06
1.43789e-06
1.43789e-06
1.43789e-06
1.43789e-06
1.43789e-06
1.43789e-06
1.43789e-06
1.43788e-06
1.44053e-06
1.44181e-06
1.44028e-06
1.43788e-06
1.43789e-06
1.43789e-06
1.43789e-06
1.43789e-06
1.43789e-06
1.43789e-06
1.43789e-06
1.43788e-06
1.44049e-06
1.44177e-06
1.44033e-06
1.43788e-06
1.43789e-06
1.43789e-06
1.43789e-06
1.43789e-06
1.43789e-06
1.43789e-06
1.43789e-06
1.43788e-06
1.44051e-06
1.44177e-06
1.44158e-06
1.44006e-06
1.43788e-06
1.43789e-06
1.43789e-06
1.43789e-06
1.43789e-06
1.43789e-06
1.43788e-06
1.44017e-06
1.44058e-06
1.44184e-06
1.44172e-06
1.44051e-06
1.44003e-06
1.43788e-06
1.43789e-06
1.43789e-06
1.43789e-06
1.43788e-06
1.44013e-06
1.44045e-06
1.4407e-06
1.44164e-06
1.4405e-06
1.44005e-06
1.43788e-06
1.43788e-06
1.43788e-06
1.44017e-06
1.44045e-06
1.44067e-06
1.44185e-06
1.44165e-06
1.44059e-06
1.44053e-06
1.44049e-06
1.44051e-06
1.44058e-06
1.4407e-06
1.44185e-06
1.44177e-06
1.44181e-06
1.44177e-06
1.44177e-06
1.44184e-06
1.42871e-06
1.42738e-06
1.42729e-06
1.42734e-06
1.4286e-06
1.42873e-06
1.42879e-06
1.42757e-06
1.42697e-06
1.42489e-06
1.42489e-06
1.42489e-06
1.42707e-06
1.42752e-06
1.42865e-06
1.42757e-06
1.42694e-06
1.42489e-06
1.42489e-06
1.42489e-06
1.42489e-06
1.42489e-06
1.42704e-06
1.42751e-06
1.42866e-06
1.42871e-06
1.42697e-06
1.42489e-06
1.42489e-06
1.4249e-06
1.4249e-06
1.4249e-06
1.42489e-06
1.42489e-06
1.42706e-06
1.4276e-06
1.42878e-06
1.42738e-06
1.42489e-06
1.42489e-06
1.4249e-06
1.4249e-06
1.4249e-06
1.4249e-06
1.4249e-06
1.42489e-06
1.42489e-06
1.42754e-06
1.42882e-06
1.42729e-06
1.42489e-06
1.42489e-06
1.4249e-06
1.4249e-06
1.4249e-06
1.4249e-06
1.4249e-06
1.42489e-06
1.42489e-06
1.4275e-06
1.42878e-06
1.42734e-06
1.42489e-06
1.42489e-06
1.4249e-06
1.4249e-06
1.4249e-06
1.4249e-06
1.4249e-06
1.42489e-06
1.42489e-06
1.42752e-06
1.42878e-06
1.4286e-06
1.42707e-06
1.42489e-06
1.42489e-06
1.4249e-06
1.4249e-06
1.4249e-06
1.42489e-06
1.42489e-06
1.42718e-06
1.4276e-06
1.42885e-06
1.42873e-06
1.42752e-06
1.42704e-06
1.42489e-06
1.42489e-06
1.42489e-06
1.42489e-06
1.42489e-06
1.42714e-06
1.42747e-06
1.42771e-06
1.42865e-06
1.42751e-06
1.42706e-06
1.42489e-06
1.42489e-06
1.42489e-06
1.42718e-06
1.42747e-06
1.42768e-06
1.42886e-06
1.42866e-06
1.4276e-06
1.42754e-06
1.4275e-06
1.42752e-06
1.4276e-06
1.42771e-06
1.42886e-06
1.42878e-06
1.42882e-06
1.42878e-06
1.42878e-06
1.42885e-06
1.41572e-06
1.41439e-06
1.4143e-06
1.41435e-06
1.41561e-06
1.41574e-06
1.4158e-06
1.41458e-06
1.41398e-06
1.4119e-06
1.4119e-06
1.4119e-06
1.41408e-06
1.41453e-06
1.41566e-06
1.41458e-06
1.41395e-06
1.4119e-06
1.4119e-06
1.4119e-06
1.4119e-06
1.4119e-06
1.41405e-06
1.41452e-06
1.41567e-06
1.41572e-06
1.41398e-06
1.4119e-06
1.4119e-06
1.4119e-06
1.41191e-06
1.4119e-06
1.4119e-06
1.4119e-06
1.41407e-06
1.41461e-06
1.41579e-06
1.41439e-06
1.4119e-06
1.4119e-06
1.4119e-06
1.41191e-06
1.41191e-06
1.41191e-06
1.4119e-06
1.4119e-06
1.4119e-06
1.41456e-06
1.41584e-06
1.4143e-06
1.4119e-06
1.4119e-06
1.41191e-06
1.41191e-06
1.41191e-06
1.41191e-06
1.41191e-06
1.4119e-06
1.4119e-06
1.41451e-06
1.41579e-06
1.41435e-06
1.4119e-06
1.4119e-06
1.4119e-06
1.41191e-06
1.41191e-06
1.41191e-06
1.4119e-06
1.4119e-06
1.4119e-06
1.41453e-06
1.41579e-06
1.41561e-06
1.41408e-06
1.4119e-06
1.4119e-06
1.4119e-06
1.41191e-06
1.4119e-06
1.4119e-06
1.4119e-06
1.4142e-06
1.41461e-06
1.41586e-06
1.41574e-06
1.41453e-06
1.41405e-06
1.4119e-06
1.4119e-06
1.4119e-06
1.4119e-06
1.4119e-06
1.41415e-06
1.41448e-06
1.41472e-06
1.41566e-06
1.41452e-06
1.41407e-06
1.4119e-06
1.4119e-06
1.4119e-06
1.4142e-06
1.41448e-06
1.41469e-06
1.41587e-06
1.41567e-06
1.41461e-06
1.41456e-06
1.41451e-06
1.41453e-06
1.41461e-06
1.41472e-06
1.41587e-06
1.41579e-06
1.41584e-06
1.41579e-06
1.41579e-06
1.41586e-06
1.40273e-06
1.4014e-06
1.40131e-06
1.40136e-06
1.40262e-06
1.40275e-06
1.40281e-06
1.40159e-06
1.40099e-06
1.39891e-06
1.39891e-06
1.39891e-06
1.4011e-06
1.40154e-06
1.40267e-06
1.40159e-06
1.40096e-06
1.39891e-06
1.39891e-06
1.39891e-06
1.39891e-06
1.39891e-06
1.40106e-06
1.40153e-06
1.40268e-06
1.40273e-06
1.40099e-06
1.39891e-06
1.39891e-06
1.39891e-06
1.39891e-06
1.39891e-06
1.39891e-06
1.39891e-06
1.40108e-06
1.40162e-06
1.4028e-06
1.4014e-06
1.39891e-06
1.39891e-06
1.39891e-06
1.39892e-06
1.39891e-06
1.39892e-06
1.39891e-06
1.39891e-06
1.39891e-06
1.40157e-06
1.40285e-06
1.40131e-06
1.39891e-06
1.39891e-06
1.39891e-06
1.39891e-06
1.39892e-06
1.39891e-06
1.39891e-06
1.39891e-06
1.39891e-06
1.40152e-06
1.4028e-06
1.40136e-06
1.39891e-06
1.39891e-06
1.39891e-06
1.39892e-06
1.39892e-06
1.39892e-06
1.39891e-06
1.39891e-06
1.39891e-06
1.40154e-06
1.4028e-06
1.40262e-06
1.4011e-06
1.39891e-06
1.39891e-06
1.39891e-06
1.39891e-06
1.39891e-06
1.39891e-06
1.39891e-06
1.40121e-06
1.40162e-06
1.40287e-06
1.40275e-06
1.40154e-06
1.40106e-06
1.39891e-06
1.39891e-06
1.39891e-06
1.39891e-06
1.39891e-06
1.40117e-06
1.40149e-06
1.40173e-06
1.40267e-06
1.40153e-06
1.40108e-06
1.39891e-06
1.39891e-06
1.39891e-06
1.40121e-06
1.40149e-06
1.4017e-06
1.40288e-06
1.40268e-06
1.40162e-06
1.40157e-06
1.40152e-06
1.40154e-06
1.40162e-06
1.40173e-06
1.40288e-06
1.4028e-06
1.40285e-06
1.4028e-06
1.4028e-06
1.40287e-06
1.38974e-06
1.38841e-06
1.38832e-06
1.38837e-06
1.38963e-06
1.38976e-06
1.38982e-06
1.3886e-06
1.388e-06
1.38592e-06
1.38592e-06
1.38592e-06
1.38811e-06
1.38855e-06
1.38968e-06
1.3886e-06
1.38797e-06
1.38592e-06
1.38592e-06
1.38592e-06
1.38592e-06
1.38592e-06
1.38807e-06
1.38854e-06
1.38969e-06
1.38974e-06
1.388e-06
1.38592e-06
1.38592e-06
1.38592e-06
1.38592e-06
1.38592e-06
1.38592e-06
1.38592e-06
1.38809e-06
1.38863e-06
1.38981e-06
1.38841e-06
1.38592e-06
1.38592e-06
1.38592e-06
1.38592e-06
1.38592e-06
1.38592e-06
1.38592e-06
1.38592e-06
1.38592e-06
1.38858e-06
1.38986e-06
1.38832e-06
1.38592e-06
1.38592e-06
1.38592e-06
1.38592e-06
1.38593e-06
1.38592e-06
1.38592e-06
1.38592e-06
1.38592e-06
1.38853e-06
1.38981e-06
1.38837e-06
1.38592e-06
1.38592e-06
1.38592e-06
1.38592e-06
1.38592e-06
1.38592e-06
1.38592e-06
1.38592e-06
1.38592e-06
1.38855e-06
1.38981e-06
1.38963e-06
1.38811e-06
1.38592e-06
1.38592e-06
1.38592e-06
1.38592e-06
1.38592e-06
1.38592e-06
1.38592e-06
1.38822e-06
1.38863e-06
1.38988e-06
1.38976e-06
1.38855e-06
1.38807e-06
1.38592e-06
1.38592e-06
1.38592e-06
1.38592e-06
1.38592e-06
1.38817e-06
1.3885e-06
1.38874e-06
1.38968e-06
1.38854e-06
1.38809e-06
1.38592e-06
1.38592e-06
1.38592e-06
1.38822e-06
1.3885e-06
1.38871e-06
1.38989e-06
1.38969e-06
1.38863e-06
1.38858e-06
1.38853e-06
1.38855e-06
1.38863e-06
1.38874e-06
1.38989e-06
1.38981e-06
1.38986e-06
1.38981e-06
1.38981e-06
1.38989e-06
1.37675e-06
1.37542e-06
1.37533e-06
1.37538e-06
1.37664e-06
1.37677e-06
1.37683e-06
1.37561e-06
1.37501e-06
1.37293e-06
1.37293e-06
1.37293e-06
1.37512e-06
1.37556e-06
1.37669e-06
1.37561e-06
1.37498e-06
1.37293e-06
1.37293e-06
1.37293e-06
1.37293e-06
1.37293e-06
1.37508e-06
1.37555e-06
1.3767e-06
1.37675e-06
1.37501e-06
1.37293e-06
1.37293e-06
1.37293e-06
1.37293e-06
1.37293e-06
1.37293e-06
1.37293e-06
1.3751e-06
1.37564e-06
1.37682e-06
1.37542e-06
1.37293e-06
1.37293e-06
1.37293e-06
1.37294e-06
1.37294e-06
1.37294e-06
1.37293e-06
1.37293e-06
1.37293e-06
1.37559e-06
1.37687e-06
1.37533e-06
1.37293e-06
1.37293e-06
1.37293e-06
1.37294e-06
1.37294e-06
1.37294e-06
1.37293e-06
1.37293e-06
1.37293e-06
1.37554e-06
1.37682e-06
1.37538e-06
1.37293e-06
1.37293e-06
1.37293e-06
1.37294e-06
1.37294e-06
1.37294e-06
1.37293e-06
1.37293e-06
1.37293e-06
1.37556e-06
1.37683e-06
1.37664e-06
1.37512e-06
1.37293e-06
1.37293e-06
1.37293e-06
1.37293e-06
1.37293e-06
1.37293e-06
1.37293e-06
1.37523e-06
1.37564e-06
1.3769e-06
1.37677e-06
1.37556e-06
1.37508e-06
1.37293e-06
1.37293e-06
1.37293e-06
1.37293e-06
1.37293e-06
1.37519e-06
1.37551e-06
1.37575e-06
1.37669e-06
1.37555e-06
1.3751e-06
1.37293e-06
1.37293e-06
1.37293e-06
1.37523e-06
1.37551e-06
1.37572e-06
1.3769e-06
1.3767e-06
1.37564e-06
1.37559e-06
1.37554e-06
1.37556e-06
1.37564e-06
1.37575e-06
1.3769e-06
1.37682e-06
1.37687e-06
1.37682e-06
1.37683e-06
1.3769e-06
1.36377e-06
1.36243e-06
1.36234e-06
1.36239e-06
1.36365e-06
1.36378e-06
1.36384e-06
1.36262e-06
1.36202e-06
1.35994e-06
1.35994e-06
1.35994e-06
1.36213e-06
1.36257e-06
1.3637e-06
1.36262e-06
1.36199e-06
1.35994e-06
1.35994e-06
1.35994e-06
1.35994e-06
1.35994e-06
1.36209e-06
1.36256e-06
1.36371e-06
1.36377e-06
1.36202e-06
1.35994e-06
1.35994e-06
1.35994e-06
1.35994e-06
1.35994e-06
1.35994e-06
1.35994e-06
1.36211e-06
1.36265e-06
1.36383e-06
1.36243e-06
1.35994e-06
1.35994e-06
1.35994e-06
1.35995e-06
1.35995e-06
1.35995e-06
1.35994e-06
1.35994e-06
1.35994e-06
1.3626e-06
1.36388e-06
1.36234e-06
1.35994e-06
1.35994e-06
1.35994e-06
1.35995e-06
1.35994e-06
1.35995e-06
1.35994e-06
1.35994e-06
1.35994e-06
1.36255e-06
1.36383e-06
1.36239e-06
1.35994e-06
1.35994e-06
1.35994e-06
1.35995e-06
1.35995e-06
1.35995e-06
1.35994e-06
1.35994e-06
1.35994e-06
1.36257e-06
1.36384e-06
1.36365e-06
1.36213e-06
1.35994e-06
1.35994e-06
1.35994e-06
1.35994e-06
1.35994e-06
1.35994e-06
1.35994e-06
1.36224e-06
1.36265e-06
1.36391e-06
1.36378e-06
1.36257e-06
1.36209e-06
1.35994e-06
1.35994e-06
1.35994e-06
1.35994e-06
1.35994e-06
1.3622e-06
1.36252e-06
1.36276e-06
1.3637e-06
1.36256e-06
1.36211e-06
1.35994e-06
1.35994e-06
1.35994e-06
1.36224e-06
1.36252e-06
1.36273e-06
1.36391e-06
1.36371e-06
1.36265e-06
1.3626e-06
1.36255e-06
1.36257e-06
1.36265e-06
1.36276e-06
1.36391e-06
1.36383e-06
1.36388e-06
1.36383e-06
1.36384e-06
1.36391e-06
1.35078e-06
1.34944e-06
1.34935e-06
1.3494e-06
1.35066e-06
1.35079e-06
1.35085e-06
1.34963e-06
1.34903e-06
1.34695e-06
1.34696e-06
1.34695e-06
1.34914e-06
1.34958e-06
1.35072e-06
1.34963e-06
1.349e-06
1.34695e-06
1.34696e-06
1.34695e-06
1.34696e-06
1.34695e-06
1.3491e-06
1.34957e-06
1.35072e-06
1.35078e-06
1.34903e-06
1.34695e-06
1.34696e-06
1.34695e-06
1.34696e-06
1.34695e-06
1.34696e-06
1.34695e-06
1.34912e-06
1.34966e-06
1.35084e-06
1.34944e-06
1.34695e-06
1.34696e-06
1.34695e-06
1.34696e-06
1.34696e-06
1.34696e-06
1.34695e-06
1.34696e-06
1.34695e-06
1.34961e-06
1.35089e-06
1.34935e-06
1.34696e-06
1.34695e-06
1.34696e-06
1.34696e-06
1.34696e-06
1.34696e-06
1.34696e-06
1.34695e-06
1.34696e-06
1.34956e-06
1.35084e-06
1.3494e-06
1.34695e-06
1.34696e-06
1.34695e-06
1.34696e-06
1.34696e-06
1.34696e-06
1.34696e-06
1.34696e-06
1.34695e-06
1.34958e-06
1.35085e-06
1.35066e-06
1.34914e-06
1.34695e-06
1.34696e-06
1.34695e-06
1.34696e-06
1.34696e-06
1.34696e-06
1.34695e-06
1.34925e-06
1.34966e-06
1.35092e-06
1.35079e-06
1.34958e-06
1.3491e-06
1.34695e-06
1.34696e-06
1.34696e-06
1.34696e-06
1.34695e-06
1.34921e-06
1.34953e-06
1.34977e-06
1.35072e-06
1.34957e-06
1.34912e-06
1.34695e-06
1.34696e-06
1.34695e-06
1.34925e-06
1.34953e-06
1.34974e-06
1.35092e-06
1.35072e-06
1.34966e-06
1.34961e-06
1.34956e-06
1.34958e-06
1.34966e-06
1.34977e-06
1.35092e-06
1.35084e-06
1.35089e-06
1.35084e-06
1.35085e-06
1.35092e-06
1.33779e-06
1.33645e-06
1.33636e-06
1.33642e-06
1.33767e-06
1.3378e-06
1.33786e-06
1.33664e-06
1.33604e-06
1.33397e-06
1.33397e-06
1.33397e-06
1.33615e-06
1.33659e-06
1.33773e-06
1.33664e-06
1.33601e-06
1.33397e-06
1.33397e-06
1.33397e-06
1.33397e-06
1.33397e-06
1.33611e-06
1.33658e-06
1.33773e-06
1.33779e-06
1.33604e-06
1.33397e-06
1.33397e-06
1.33397e-06
1.33397e-06
1.33397e-06
1.33397e-06
1.33397e-06
1.33613e-06
1.33667e-06
1.33785e-06
1.33645e-06
1.33397e-06
1.33397e-06
1.33397e-06
1.33397e-06
1.33397e-06
1.33397e-06
1.33397e-06
1.33397e-06
1.33397e-06
1.33662e-06
1.3379e-06
1.33636e-06
1.33397e-06
1.33397e-06
1.33397e-06
1.33397e-06
1.33397e-06
1.33397e-06
1.33397e-06
1.33397e-06
1.33397e-06
1.33657e-06
1.33785e-06
1.33642e-06
1.33397e-06
1.33397e-06
1.33397e-06
1.33397e-06
1.33397e-06
1.33397e-06
1.33397e-06
1.33397e-06
1.33397e-06
1.33659e-06
1.33786e-06
1.33767e-06
1.33615e-06
1.33397e-06
1.33397e-06
1.33397e-06
1.33397e-06
1.33397e-06
1.33397e-06
1.33397e-06
1.33626e-06
1.33667e-06
1.33793e-06
1.3378e-06
1.33659e-06
1.33611e-06
1.33397e-06
1.33397e-06
1.33397e-06
1.33397e-06
1.33397e-06
1.33622e-06
1.33654e-06
1.33678e-06
1.33773e-06
1.33658e-06
1.33613e-06
1.33397e-06
1.33397e-06
1.33397e-06
1.33626e-06
1.33654e-06
1.33675e-06
1.33793e-06
1.33773e-06
1.33667e-06
1.33662e-06
1.33657e-06
1.33659e-06
1.33667e-06
1.33678e-06
1.33793e-06
1.33785e-06
1.3379e-06
1.33785e-06
1.33786e-06
1.33793e-06
1.3248e-06
1.32346e-06
1.32337e-06
1.32343e-06
1.32468e-06
1.32481e-06
1.32487e-06
1.32365e-06
1.32305e-06
1.32098e-06
1.32098e-06
1.32098e-06
1.32316e-06
1.3236e-06
1.32474e-06
1.32365e-06
1.32302e-06
1.32098e-06
1.32098e-06
1.32098e-06
1.32098e-06
1.32098e-06
1.32312e-06
1.32359e-06
1.32474e-06
1.3248e-06
1.32305e-06
1.32098e-06
1.32098e-06
1.32098e-06
1.32098e-06
1.32098e-06
1.32098e-06
1.32098e-06
1.32314e-06
1.32369e-06
1.32486e-06
1.32346e-06
1.32098e-06
1.32098e-06
1.32098e-06
1.32098e-06
1.32098e-06
1.32098e-06
1.32098e-06
1.32098e-06
1.32098e-06
1.32363e-06
1.32491e-06
1.32337e-06
1.32098e-06
1.32098e-06
1.32098e-06
1.32098e-06
1.32098e-06
1.32098e-06
1.32098e-06
1.32098e-06
1.32098e-06
1.32358e-06
1.32486e-06
1.32343e-06
1.32098e-06
1.32098e-06
1.32098e-06
1.32098e-06
1.32098e-06
1.32098e-06
1.32098e-06
1.32098e-06
1.32098e-06
1.3236e-06
1.32487e-06
1.32468e-06
1.32316e-06
1.32098e-06
1.32098e-06
1.32098e-06
1.32098e-06
1.32098e-06
1.32098e-06
1.32098e-06
1.32327e-06
1.32368e-06
1.32494e-06
1.32481e-06
1.3236e-06
1.32312e-06
1.32098e-06
1.32098e-06
1.32098e-06
1.32098e-06
1.32098e-06
1.32323e-06
1.32355e-06
1.32379e-06
1.32474e-06
1.32359e-06
1.32314e-06
1.32098e-06
1.32098e-06
1.32098e-06
1.32327e-06
1.32355e-06
1.32376e-06
1.32494e-06
1.32474e-06
1.32369e-06
1.32363e-06
1.32358e-06
1.3236e-06
1.32368e-06
1.32379e-06
1.32494e-06
1.32486e-06
1.32491e-06
1.32486e-06
1.32487e-06
1.32494e-06
1.31181e-06
1.31047e-06
1.31038e-06
1.31044e-06
1.31169e-06
1.31182e-06
1.31188e-06
1.31066e-06
1.31006e-06
1.30799e-06
1.30799e-06
1.30799e-06
1.31017e-06
1.31061e-06
1.31175e-06
1.31066e-06
1.31003e-06
1.30799e-06
1.30799e-06
1.30799e-06
1.30799e-06
1.30799e-06
1.31013e-06
1.3106e-06
1.31175e-06
1.31181e-06
1.31006e-06
1.30799e-06
1.30799e-06
1.30799e-06
1.30799e-06
1.30799e-06
1.30799e-06
1.30799e-06
1.31015e-06
1.3107e-06
1.31187e-06
1.31047e-06
1.30799e-06
1.30799e-06
1.30799e-06
1.30799e-06
1.30799e-06
1.30799e-06
1.30799e-06
1.30799e-06
1.30799e-06
1.31064e-06
1.31192e-06
1.31038e-06
1.30799e-06
1.30799e-06
1.30799e-06
1.30799e-06
1.30799e-06
1.30799e-06
1.30799e-06
1.30799e-06
1.30799e-06
1.31059e-06
1.31187e-06
1.31044e-06
1.30799e-06
1.30799e-06
1.30799e-06
1.30799e-06
1.30799e-06
1.30799e-06
1.30799e-06
1.30799e-06
1.30799e-06
1.31061e-06
1.31188e-06
1.31169e-06
1.31017e-06
1.30799e-06
1.30799e-06
1.30799e-06
1.30799e-06
1.30799e-06
1.30799e-06
1.30799e-06
1.31028e-06
1.31069e-06
1.31195e-06
1.31182e-06
1.31061e-06
1.31013e-06
1.30799e-06
1.30799e-06
1.30799e-06
1.30799e-06
1.30799e-06
1.31024e-06
1.31056e-06
1.3108e-06
1.31175e-06
1.3106e-06
1.31015e-06
1.30799e-06
1.30799e-06
1.30799e-06
1.31028e-06
1.31056e-06
1.31077e-06
1.31195e-06
1.31175e-06
1.3107e-06
1.31064e-06
1.31059e-06
1.31061e-06
1.31069e-06
1.3108e-06
1.31195e-06
1.31187e-06
1.31192e-06
1.31187e-06
1.31188e-06
1.31195e-06
1.29882e-06
1.29748e-06
1.29739e-06
1.29745e-06
1.2987e-06
1.29883e-06
1.29889e-06
1.29767e-06
1.29707e-06
1.295e-06
1.295e-06
1.295e-06
1.29718e-06
1.29762e-06
1.29876e-06
1.29767e-06
1.29704e-06
1.295e-06
1.295e-06
1.295e-06
1.295e-06
1.295e-06
1.29714e-06
1.29761e-06
1.29876e-06
1.29882e-06
1.29707e-06
1.295e-06
1.295e-06
1.295e-06
1.295e-06
1.295e-06
1.295e-06
1.295e-06
1.29716e-06
1.29771e-06
1.29888e-06
1.29748e-06
1.295e-06
1.295e-06
1.295e-06
1.295e-06
1.295e-06
1.295e-06
1.295e-06
1.295e-06
1.295e-06
1.29765e-06
1.29893e-06
1.29739e-06
1.295e-06
1.295e-06
1.295e-06
1.295e-06
1.295e-06
1.295e-06
1.295e-06
1.295e-06
1.295e-06
1.2976e-06
1.29888e-06
1.29745e-06
1.295e-06
1.295e-06
1.295e-06
1.295e-06
1.295e-06
1.295e-06
1.295e-06
1.295e-06
1.295e-06
1.29762e-06
1.29889e-06
1.2987e-06
1.29718e-06
1.295e-06
1.295e-06
1.295e-06
1.295e-06
1.295e-06
1.295e-06
1.295e-06
1.29729e-06
1.2977e-06
1.29896e-06
1.29883e-06
1.29762e-06
1.29714e-06
1.295e-06
1.295e-06
1.295e-06
1.295e-06
1.295e-06
1.29725e-06
1.29757e-06
1.29781e-06
1.29876e-06
1.29761e-06
1.29716e-06
1.295e-06
1.295e-06
1.295e-06
1.29729e-06
1.29757e-06
1.29778e-06
1.29896e-06
1.29876e-06
1.29771e-06
1.29765e-06
1.2976e-06
1.29762e-06
1.2977e-06
1.29781e-06
1.29896e-06
1.29888e-06
1.29893e-06
1.29888e-06
1.29889e-06
1.29896e-06
1.28583e-06
1.28449e-06
1.28441e-06
1.28446e-06
1.28571e-06
1.28584e-06
1.2859e-06
1.28468e-06
1.28408e-06
1.28201e-06
1.28201e-06
1.28201e-06
1.28419e-06
1.28463e-06
1.28577e-06
1.28468e-06
1.28405e-06
1.28201e-06
1.28201e-06
1.28201e-06
1.28201e-06
1.28201e-06
1.28415e-06
1.28462e-06
1.28577e-06
1.28583e-06
1.28408e-06
1.28201e-06
1.28201e-06
1.28201e-06
1.28201e-06
1.28201e-06
1.28201e-06
1.28201e-06
1.28417e-06
1.28472e-06
1.28589e-06
1.28449e-06
1.28201e-06
1.28201e-06
1.28201e-06
1.28201e-06
1.28201e-06
1.28201e-06
1.28201e-06
1.28201e-06
1.28201e-06
1.28466e-06
1.28594e-06
1.28441e-06
1.28201e-06
1.28201e-06
1.28201e-06
1.28201e-06
1.28201e-06
1.28201e-06
1.28201e-06
1.28201e-06
1.28201e-06
1.28461e-06
1.28589e-06
1.28446e-06
1.28201e-06
1.28201e-06
1.28201e-06
1.28201e-06
1.28201e-06
1.28201e-06
1.28201e-06
1.28201e-06
1.28201e-06
1.28463e-06
1.2859e-06
1.28571e-06
1.28419e-06
1.28201e-06
1.28201e-06