/*--------------------------------*- C++ -*----------------------------------*\
| =========                 |                                                 |
| \\      /  F ield         | OpenFOAM: The Open Source CFD Toolbox           |
|  \\    /   O peration     | Version:  v2012                                 |
|   \\  /    A nd           | Website:  www.openfoam.com                      |
|    \\/     M anipulation  |                                                 |
\*---------------------------------------------------------------------------*/
FoamFile
{
    version     2.0;
    format      ascii;
    class       volScalarField;
    location    "65";
    object      p;
}
// * * * * * * * * * * * * * * * * * * * * * * * * * * * * * * * * * * * * * //

dimensions      [0 2 -2 0 0 0 0];


internalField   nonuniform List<scalar> 
292667
(
1.0894e-06
1.08037e-06
1.07968e-06
1.07974e-06
1.08067e-06
1.09027e-06
1.08057e-06
1.07821e-06
1.07681e-06
1.07624e-06
1.07631e-06
1.07706e-06
1.07866e-06
1.08123e-06
1.08057e-06
1.07752e-06
1.07559e-06
1.07453e-06
1.07408e-06
1.07414e-06
1.07472e-06
1.07595e-06
1.07812e-06
1.08141e-06
1.0894e-06
1.07821e-06
1.07559e-06
1.07403e-06
1.07316e-06
1.07278e-06
1.07283e-06
1.07332e-06
1.07433e-06
1.07611e-06
1.07902e-06
1.0889e-06
1.08037e-06
1.07681e-06
1.07453e-06
1.07316e-06
1.07238e-06
1.07204e-06
1.07209e-06
1.07253e-06
1.07343e-06
1.07499e-06
1.07757e-06
1.08375e-06
1.07968e-06
1.07624e-06
1.07408e-06
1.07278e-06
1.07204e-06
1.07172e-06
1.07177e-06
1.07218e-06
1.07305e-06
1.07452e-06
1.07697e-06
1.08222e-06
1.07974e-06
1.07631e-06
1.07414e-06
1.07283e-06
1.07209e-06
1.07177e-06
1.07181e-06
1.07223e-06
1.0731e-06
1.07459e-06
1.07706e-06
1.08252e-06
1.08067e-06
1.07706e-06
1.07472e-06
1.07332e-06
1.07253e-06
1.07218e-06
1.07223e-06
1.07268e-06
1.0736e-06
1.0752e-06
1.07785e-06
1.08404e-06
1.09027e-06
1.07866e-06
1.07595e-06
1.07433e-06
1.07343e-06
1.07305e-06
1.0731e-06
1.0736e-06
1.07466e-06
1.07651e-06
1.07953e-06
1.08876e-06
1.08123e-06
1.07812e-06
1.0761e-06
1.07499e-06
1.07452e-06
1.07459e-06
1.0752e-06
1.07651e-06
1.0788e-06
1.08471e-06
1.08141e-06
1.07902e-06
1.07757e-06
1.07697e-06
1.07706e-06
1.07785e-06
1.07953e-06
1.08471e-06
1.0889e-06
1.08375e-06
1.08222e-06
1.08252e-06
1.08404e-06
1.08876e-06
1.06487e-06
1.06418e-06
1.06414e-06
1.06419e-06
1.06489e-06
1.06475e-06
1.0649e-06
1.06436e-06
1.06402e-06
1.06282e-06
1.0628e-06
1.06282e-06
1.06418e-06
1.06442e-06
1.06495e-06
1.06436e-06
1.064e-06
1.06286e-06
1.06281e-06
1.06286e-06
1.06282e-06
1.06286e-06
1.06417e-06
1.06441e-06
1.06493e-06
1.06487e-06
1.06402e-06
1.06286e-06
1.0628e-06
1.06283e-06
1.06281e-06
1.06283e-06
1.0628e-06
1.06286e-06
1.06416e-06
1.06444e-06
1.06495e-06
1.06418e-06
1.06282e-06
1.06282e-06
1.06283e-06
1.06279e-06
1.06279e-06
1.06279e-06
1.06283e-06
1.06282e-06
1.06282e-06
1.06459e-06
1.06512e-06
1.06415e-06
1.0628e-06
1.06286e-06
1.06281e-06
1.06279e-06
1.06279e-06
1.06279e-06
1.06281e-06
1.06286e-06
1.0628e-06
1.06461e-06
1.06506e-06
1.06419e-06
1.06282e-06
1.06282e-06
1.06283e-06
1.06279e-06
1.06279e-06
1.06279e-06
1.06283e-06
1.06282e-06
1.06282e-06
1.06461e-06
1.06508e-06
1.06489e-06
1.06418e-06
1.06286e-06
1.0628e-06
1.06283e-06
1.06281e-06
1.06283e-06
1.0628e-06
1.06286e-06
1.06436e-06
1.0645e-06
1.06508e-06
1.06475e-06
1.06442e-06
1.06417e-06
1.06286e-06
1.06282e-06
1.06286e-06
1.06282e-06
1.06286e-06
1.06433e-06
1.06447e-06
1.06447e-06
1.06495e-06
1.06441e-06
1.06416e-06
1.06282e-06
1.0628e-06
1.06282e-06
1.06436e-06
1.06447e-06
1.06451e-06
1.06504e-06
1.06493e-06
1.06444e-06
1.06459e-06
1.06461e-06
1.06461e-06
1.0645e-06
1.06447e-06
1.06504e-06
1.06495e-06
1.06512e-06
1.06506e-06
1.06508e-06
1.06508e-06
1.05581e-06
1.05508e-06
1.05502e-06
1.05506e-06
1.05582e-06
1.05584e-06
1.05583e-06
1.05519e-06
1.05478e-06
1.05363e-06
1.05362e-06
1.05363e-06
1.05494e-06
1.05522e-06
1.05583e-06
1.05519e-06
1.05476e-06
1.05367e-06
1.05367e-06
1.05371e-06
1.05367e-06
1.05367e-06
1.05494e-06
1.05522e-06
1.05584e-06
1.05581e-06
1.05478e-06
1.05367e-06
1.05369e-06
1.05373e-06
1.05373e-06
1.05373e-06
1.05369e-06
1.05367e-06
1.05495e-06
1.05528e-06
1.05586e-06
1.05508e-06
1.05363e-06
1.05367e-06
1.05373e-06
1.05374e-06
1.05376e-06
1.05374e-06
1.05373e-06
1.05367e-06
1.05363e-06
1.05535e-06
1.05601e-06
1.05502e-06
1.05362e-06
1.05371e-06
1.05373e-06
1.05376e-06
1.05376e-06
1.05376e-06
1.05373e-06
1.05371e-06
1.05362e-06
1.05535e-06
1.05603e-06
1.05506e-06
1.05363e-06
1.05367e-06
1.05373e-06
1.05374e-06
1.05376e-06
1.05374e-06
1.05373e-06
1.05367e-06
1.05363e-06
1.05535e-06
1.05603e-06
1.05582e-06
1.05494e-06
1.05367e-06
1.05369e-06
1.05373e-06
1.05373e-06
1.05373e-06
1.05369e-06
1.05367e-06
1.05516e-06
1.05533e-06
1.056e-06
1.05584e-06
1.05522e-06
1.05494e-06
1.05367e-06
1.05367e-06
1.05371e-06
1.05367e-06
1.05367e-06
1.05514e-06
1.05527e-06
1.05536e-06
1.05583e-06
1.05522e-06
1.05495e-06
1.05363e-06
1.05362e-06
1.05363e-06
1.05516e-06
1.05527e-06
1.05534e-06
1.05598e-06
1.05584e-06
1.05528e-06
1.05535e-06
1.05535e-06
1.05535e-06
1.05533e-06
1.05536e-06
1.05598e-06
1.05586e-06
1.05601e-06
1.05603e-06
1.05603e-06
1.056e-06
1.04679e-06
1.04604e-06
1.04598e-06
1.04602e-06
1.04679e-06
1.04682e-06
1.0468e-06
1.04614e-06
1.04572e-06
1.04454e-06
1.04455e-06
1.04454e-06
1.04587e-06
1.04616e-06
1.04681e-06
1.04614e-06
1.04569e-06
1.04457e-06
1.04458e-06
1.0446e-06
1.04458e-06
1.04457e-06
1.04586e-06
1.04616e-06
1.04681e-06
1.04679e-06
1.04572e-06
1.04457e-06
1.04459e-06
1.04462e-06
1.04462e-06
1.04462e-06
1.04459e-06
1.04457e-06
1.04588e-06
1.04624e-06
1.04683e-06
1.04604e-06
1.04454e-06
1.04458e-06
1.04462e-06
1.04464e-06
1.04465e-06
1.04464e-06
1.04462e-06
1.04458e-06
1.04454e-06
1.0463e-06
1.04698e-06
1.04598e-06
1.04455e-06
1.0446e-06
1.04462e-06
1.04465e-06
1.04466e-06
1.04465e-06
1.04462e-06
1.0446e-06
1.04455e-06
1.04629e-06
1.04699e-06
1.04602e-06
1.04454e-06
1.04458e-06
1.04462e-06
1.04464e-06
1.04465e-06
1.04464e-06
1.04462e-06
1.04458e-06
1.04454e-06
1.04629e-06
1.04699e-06
1.04679e-06
1.04587e-06
1.04457e-06
1.04459e-06
1.04462e-06
1.04462e-06
1.04462e-06
1.04459e-06
1.04457e-06
1.04609e-06
1.04629e-06
1.04697e-06
1.04682e-06
1.04616e-06
1.04586e-06
1.04457e-06
1.04458e-06
1.0446e-06
1.04458e-06
1.04457e-06
1.04606e-06
1.04621e-06
1.04633e-06
1.04681e-06
1.04616e-06
1.04588e-06
1.04454e-06
1.04455e-06
1.04454e-06
1.04609e-06
1.04621e-06
1.04631e-06
1.04695e-06
1.04681e-06
1.04624e-06
1.0463e-06
1.04629e-06
1.04629e-06
1.04629e-06
1.04633e-06
1.04695e-06
1.04683e-06
1.04698e-06
1.04699e-06
1.04699e-06
1.04697e-06
1.03775e-06
1.037e-06
1.03694e-06
1.03699e-06
1.03776e-06
1.03779e-06
1.03777e-06
1.03711e-06
1.03668e-06
1.03549e-06
1.03549e-06
1.03549e-06
1.03683e-06
1.03713e-06
1.03778e-06
1.03711e-06
1.03665e-06
1.0355e-06
1.03552e-06
1.03552e-06
1.03552e-06
1.0355e-06
1.03681e-06
1.03713e-06
1.03778e-06
1.03775e-06
1.03668e-06
1.0355e-06
1.03552e-06
1.03554e-06
1.03554e-06
1.03554e-06
1.03552e-06
1.0355e-06
1.03683e-06
1.03721e-06
1.0378e-06
1.037e-06
1.03549e-06
1.03552e-06
1.03554e-06
1.03555e-06
1.03556e-06
1.03555e-06
1.03554e-06
1.03552e-06
1.03549e-06
1.03726e-06
1.03795e-06
1.03694e-06
1.03549e-06
1.03552e-06
1.03554e-06
1.03556e-06
1.03556e-06
1.03556e-06
1.03554e-06
1.03552e-06
1.03549e-06
1.03725e-06
1.03796e-06
1.03699e-06
1.03549e-06
1.03552e-06
1.03554e-06
1.03555e-06
1.03556e-06
1.03555e-06
1.03554e-06
1.03552e-06
1.03549e-06
1.03726e-06
1.03796e-06
1.03776e-06
1.03683e-06
1.0355e-06
1.03552e-06
1.03554e-06
1.03554e-06
1.03554e-06
1.03552e-06
1.0355e-06
1.03705e-06
1.03725e-06
1.03794e-06
1.03779e-06
1.03713e-06
1.03681e-06
1.0355e-06
1.03552e-06
1.03552e-06
1.03552e-06
1.0355e-06
1.03702e-06
1.03718e-06
1.0373e-06
1.03778e-06
1.03713e-06
1.03683e-06
1.03549e-06
1.03549e-06
1.03549e-06
1.03705e-06
1.03718e-06
1.03727e-06
1.03792e-06
1.03778e-06
1.03721e-06
1.03726e-06
1.03725e-06
1.03726e-06
1.03725e-06
1.0373e-06
1.03792e-06
1.0378e-06
1.03795e-06
1.03796e-06
1.03796e-06
1.03794e-06
1.02872e-06
1.02797e-06
1.02791e-06
1.02795e-06
1.02873e-06
1.02876e-06
1.02874e-06
1.02808e-06
1.02764e-06
1.02645e-06
1.02645e-06
1.02645e-06
1.02779e-06
1.02809e-06
1.02874e-06
1.02808e-06
1.02761e-06
1.02646e-06
1.02646e-06
1.02647e-06
1.02646e-06
1.02646e-06
1.02777e-06
1.02809e-06
1.02875e-06
1.02872e-06
1.02764e-06
1.02646e-06
1.02647e-06
1.02648e-06
1.02648e-06
1.02648e-06
1.02647e-06
1.02646e-06
1.02779e-06
1.02817e-06
1.02877e-06
1.02797e-06
1.02645e-06
1.02646e-06
1.02648e-06
1.02649e-06
1.02649e-06
1.02649e-06
1.02648e-06
1.02646e-06
1.02645e-06
1.02823e-06
1.02892e-06
1.02791e-06
1.02645e-06
1.02647e-06
1.02648e-06
1.02649e-06
1.02649e-06
1.02649e-06
1.02648e-06
1.02647e-06
1.02645e-06
1.02822e-06
1.02893e-06
1.02795e-06
1.02645e-06
1.02646e-06
1.02648e-06
1.02649e-06
1.02649e-06
1.02649e-06
1.02648e-06
1.02646e-06
1.02645e-06
1.02822e-06
1.02893e-06
1.02873e-06
1.02779e-06
1.02646e-06
1.02647e-06
1.02648e-06
1.02648e-06
1.02648e-06
1.02647e-06
1.02646e-06
1.02801e-06
1.02822e-06
1.02891e-06
1.02876e-06
1.02809e-06
1.02777e-06
1.02646e-06
1.02646e-06
1.02647e-06
1.02646e-06
1.02646e-06
1.02798e-06
1.02814e-06
1.02827e-06
1.02874e-06
1.02809e-06
1.02779e-06
1.02645e-06
1.02645e-06
1.02645e-06
1.02801e-06
1.02814e-06
1.02824e-06
1.02889e-06
1.02875e-06
1.02817e-06
1.02823e-06
1.02822e-06
1.02822e-06
1.02822e-06
1.02827e-06
1.02889e-06
1.02877e-06
1.02892e-06
1.02893e-06
1.02893e-06
1.02891e-06
1.01969e-06
1.01894e-06
1.01887e-06
1.01892e-06
1.0197e-06
1.01972e-06
1.01971e-06
1.01904e-06
1.01861e-06
1.01741e-06
1.01742e-06
1.01741e-06
1.01876e-06
1.01906e-06
1.01971e-06
1.01904e-06
1.01857e-06
1.01742e-06
1.01742e-06
1.01742e-06
1.01742e-06
1.01742e-06
1.01874e-06
1.01906e-06
1.01971e-06
1.01969e-06
1.01861e-06
1.01742e-06
1.01742e-06
1.01743e-06
1.01743e-06
1.01743e-06
1.01742e-06
1.01742e-06
1.01876e-06
1.01914e-06
1.01974e-06
1.01894e-06
1.01741e-06
1.01742e-06
1.01743e-06
1.01743e-06
1.01744e-06
1.01743e-06
1.01743e-06
1.01742e-06
1.01741e-06
1.01919e-06
1.01988e-06
1.01887e-06
1.01742e-06
1.01742e-06
1.01743e-06
1.01744e-06
1.01744e-06
1.01744e-06
1.01743e-06
1.01742e-06
1.01742e-06
1.01918e-06
1.0199e-06
1.01892e-06
1.01741e-06
1.01742e-06
1.01743e-06
1.01743e-06
1.01744e-06
1.01743e-06
1.01743e-06
1.01742e-06
1.01741e-06
1.01919e-06
1.0199e-06
1.0197e-06
1.01876e-06
1.01742e-06
1.01742e-06
1.01743e-06
1.01743e-06
1.01743e-06
1.01742e-06
1.01742e-06
1.01897e-06
1.01919e-06
1.01988e-06
1.01972e-06
1.01906e-06
1.01874e-06
1.01742e-06
1.01742e-06
1.01742e-06
1.01742e-06
1.01742e-06
1.01894e-06
1.01911e-06
1.01923e-06
1.01971e-06
1.01906e-06
1.01876e-06
1.01741e-06
1.01742e-06
1.01741e-06
1.01897e-06
1.01911e-06
1.01921e-06
1.01986e-06
1.01971e-06
1.01914e-06
1.01919e-06
1.01918e-06
1.01919e-06
1.01919e-06
1.01923e-06
1.01986e-06
1.01974e-06
1.01988e-06
1.0199e-06
1.0199e-06
1.01988e-06
1.01066e-06
1.0099e-06
1.00984e-06
1.00989e-06
1.01066e-06
1.01069e-06
1.01067e-06
1.01001e-06
1.00957e-06
1.00838e-06
1.00838e-06
1.00838e-06
1.00972e-06
1.01002e-06
1.01068e-06
1.01001e-06
1.00954e-06
1.00838e-06
1.00838e-06
1.00838e-06
1.00838e-06
1.00838e-06
1.0097e-06
1.01002e-06
1.01068e-06
1.01066e-06
1.00957e-06
1.00838e-06
1.00838e-06
1.00839e-06
1.00839e-06
1.00839e-06
1.00838e-06
1.00838e-06
1.00972e-06
1.01011e-06
1.0107e-06
1.0099e-06
1.00838e-06
1.00838e-06
1.00839e-06
1.00839e-06
1.00839e-06
1.00839e-06
1.00839e-06
1.00838e-06
1.00838e-06
1.01016e-06
1.01085e-06
1.00984e-06
1.00838e-06
1.00838e-06
1.00839e-06
1.00839e-06
1.00839e-06
1.00839e-06
1.00839e-06
1.00838e-06
1.00838e-06
1.01015e-06
1.01086e-06
1.00989e-06
1.00838e-06
1.00838e-06
1.00839e-06
1.00839e-06
1.00839e-06
1.00839e-06
1.00839e-06
1.00838e-06
1.00838e-06
1.01015e-06
1.01087e-06
1.01066e-06
1.00972e-06
1.00838e-06
1.00838e-06
1.00839e-06
1.00839e-06
1.00839e-06
1.00838e-06
1.00838e-06
1.00994e-06
1.01015e-06
1.01084e-06
1.01069e-06
1.01002e-06
1.0097e-06
1.00838e-06
1.00838e-06
1.00838e-06
1.00838e-06
1.00838e-06
1.00991e-06
1.01007e-06
1.0102e-06
1.01068e-06
1.01002e-06
1.00972e-06
1.00838e-06
1.00838e-06
1.00838e-06
1.00994e-06
1.01007e-06
1.01018e-06
1.01082e-06
1.01068e-06
1.01011e-06
1.01016e-06
1.01015e-06
1.01015e-06
1.01015e-06
1.0102e-06
1.01082e-06
1.0107e-06
1.01085e-06
1.01086e-06
1.01087e-06
1.01084e-06
1.00162e-06
1.00087e-06
1.0008e-06
1.00085e-06
1.00163e-06
1.00166e-06
1.00164e-06
1.00097e-06
1.00054e-06
9.99344e-07
9.99345e-07
9.99344e-07
1.00069e-06
1.00099e-06
1.00164e-06
1.00097e-06
1.0005e-06
9.99345e-07
9.99347e-07
9.99347e-07
9.99347e-07
9.99345e-07
1.00067e-06
1.00099e-06
1.00165e-06
1.00162e-06
1.00054e-06
9.99345e-07
9.99348e-07
9.99349e-07
9.99349e-07
9.99349e-07
9.99347e-07
9.99345e-07
1.00069e-06
1.00107e-06
1.00167e-06
1.00087e-06
9.99344e-07
9.99347e-07
9.99349e-07
9.99351e-07
9.99351e-07
9.99351e-07
9.99349e-07
9.99347e-07
9.99344e-07
1.00112e-06
1.00182e-06
1.0008e-06
9.99345e-07
9.99347e-07
9.99349e-07
9.99351e-07
9.99352e-07
9.99351e-07
9.99349e-07
9.99347e-07
9.99345e-07
1.00111e-06
1.00183e-06
1.00085e-06
9.99344e-07
9.99347e-07
9.99349e-07
9.99351e-07
9.99351e-07
9.99351e-07
9.99349e-07
9.99347e-07
9.99344e-07
1.00112e-06
1.00183e-06
1.00163e-06
1.00069e-06
9.99345e-07
9.99348e-07
9.99349e-07
9.99349e-07
9.99349e-07
9.99347e-07
9.99345e-07
1.0009e-06
1.00112e-06
1.00181e-06
1.00166e-06
1.00099e-06
1.00067e-06
9.99345e-07
9.99347e-07
9.99347e-07
9.99347e-07
9.99345e-07
1.00087e-06
1.00104e-06
1.00117e-06
1.00164e-06
1.00099e-06
1.00069e-06
9.99344e-07
9.99345e-07
9.99344e-07
1.0009e-06
1.00104e-06
1.00114e-06
1.00179e-06
1.00165e-06
1.00107e-06
1.00112e-06
1.00111e-06
1.00112e-06
1.00112e-06
1.00117e-06
1.00179e-06
1.00167e-06
1.00182e-06
1.00183e-06
1.00183e-06
1.00181e-06
9.92589e-07
9.91834e-07
9.9177e-07
9.91819e-07
9.92594e-07
9.92621e-07
9.92607e-07
9.91941e-07
9.91504e-07
9.9031e-07
9.9031e-07
9.9031e-07
9.91654e-07
9.91957e-07
9.92611e-07
9.91941e-07
9.91468e-07
9.9031e-07
9.90312e-07
9.90312e-07
9.90312e-07
9.9031e-07
9.91631e-07
9.91954e-07
9.92614e-07
9.92589e-07
9.91504e-07
9.9031e-07
9.90312e-07
9.90312e-07
9.90313e-07
9.90312e-07
9.90312e-07
9.9031e-07
9.91656e-07
9.9204e-07
9.92637e-07
9.91834e-07
9.9031e-07
9.90312e-07
9.90312e-07
9.90314e-07
9.90314e-07
9.90314e-07
9.90312e-07
9.90312e-07
9.9031e-07
9.92091e-07
9.92782e-07
9.9177e-07
9.9031e-07
9.90312e-07
9.90313e-07
9.90314e-07
9.90314e-07
9.90314e-07
9.90313e-07
9.90312e-07
9.9031e-07
9.9208e-07
9.92797e-07
9.91819e-07
9.9031e-07
9.90312e-07
9.90312e-07
9.90314e-07
9.90314e-07
9.90314e-07
9.90312e-07
9.90312e-07
9.9031e-07
9.92084e-07
9.92797e-07
9.92594e-07
9.91654e-07
9.9031e-07
9.90312e-07
9.90312e-07
9.90313e-07
9.90312e-07
9.90312e-07
9.9031e-07
9.9187e-07
9.92086e-07
9.92774e-07
9.92621e-07
9.91957e-07
9.91631e-07
9.9031e-07
9.90312e-07
9.90312e-07
9.90312e-07
9.9031e-07
9.91837e-07
9.92005e-07
9.92133e-07
9.92611e-07
9.91954e-07
9.91656e-07
9.9031e-07
9.9031e-07
9.9031e-07
9.9187e-07
9.92005e-07
9.92108e-07
9.92756e-07
9.92614e-07
9.9204e-07
9.92091e-07
9.9208e-07
9.92084e-07
9.92086e-07
9.92133e-07
9.92756e-07
9.92637e-07
9.92782e-07
9.92797e-07
9.92797e-07
9.92774e-07
9.83555e-07
9.828e-07
9.82736e-07
9.82785e-07
9.8356e-07
9.83587e-07
9.83573e-07
9.82907e-07
9.8247e-07
9.81275e-07
9.81276e-07
9.81275e-07
9.8262e-07
9.82923e-07
9.83577e-07
9.82907e-07
9.82434e-07
9.81276e-07
9.81277e-07
9.81277e-07
9.81278e-07
9.81276e-07
9.82597e-07
9.8292e-07
9.8358e-07
9.83555e-07
9.8247e-07
9.81276e-07
9.81277e-07
9.81277e-07
9.81278e-07
9.81277e-07
9.81277e-07
9.81276e-07
9.82622e-07
9.83006e-07
9.83603e-07
9.828e-07
9.81275e-07
9.81277e-07
9.81277e-07
9.81278e-07
9.81278e-07
9.81278e-07
9.81277e-07
9.81277e-07
9.81275e-07
9.83057e-07
9.83748e-07
9.82736e-07
9.81276e-07
9.81277e-07
9.81278e-07
9.81278e-07
9.81278e-07
9.81278e-07
9.81278e-07
9.81277e-07
9.81276e-07
9.83046e-07
9.83763e-07
9.82785e-07
9.81275e-07
9.81277e-07
9.81277e-07
9.81278e-07
9.81278e-07
9.81278e-07
9.81277e-07
9.81277e-07
9.81275e-07
9.8305e-07
9.83763e-07
9.8356e-07
9.8262e-07
9.81276e-07
9.81277e-07
9.81277e-07
9.81277e-07
9.81277e-07
9.81277e-07
9.81276e-07
9.82836e-07
9.83052e-07
9.8374e-07
9.83587e-07
9.82923e-07
9.82597e-07
9.81276e-07
9.81277e-07
9.81277e-07
9.81278e-07
9.81276e-07
9.82802e-07
9.82971e-07
9.83099e-07
9.83577e-07
9.8292e-07
9.82622e-07
9.81275e-07
9.81276e-07
9.81275e-07
9.82836e-07
9.82971e-07
9.83075e-07
9.83722e-07
9.8358e-07
9.83006e-07
9.83057e-07
9.83046e-07
9.8305e-07
9.83052e-07
9.83099e-07
9.83722e-07
9.83603e-07
9.83748e-07
9.83763e-07
9.83763e-07
9.8374e-07
9.74521e-07
9.73766e-07
9.73702e-07
9.7375e-07
9.74526e-07
9.74553e-07
9.74539e-07
9.73873e-07
9.73436e-07
9.72241e-07
9.72242e-07
9.72241e-07
9.73586e-07
9.73889e-07
9.74543e-07
9.73873e-07
9.73399e-07
9.72242e-07
9.72243e-07
9.72242e-07
9.72243e-07
9.72242e-07
9.73563e-07
9.73886e-07
9.74546e-07
9.74521e-07
9.73436e-07
9.72242e-07
9.72242e-07
9.72242e-07
9.72243e-07
9.72242e-07
9.72243e-07
9.72242e-07
9.73588e-07
9.73972e-07
9.74569e-07
9.73766e-07
9.72241e-07
9.72243e-07
9.72242e-07
9.72244e-07
9.72243e-07
9.72244e-07
9.72242e-07
9.72243e-07
9.72241e-07
9.74023e-07
9.74714e-07
9.73702e-07
9.72242e-07
9.72242e-07
9.72243e-07
9.72243e-07
9.72243e-07
9.72243e-07
9.72243e-07
9.72242e-07
9.72242e-07
9.74012e-07
9.74729e-07
9.7375e-07
9.72241e-07
9.72243e-07
9.72242e-07
9.72244e-07
9.72243e-07
9.72244e-07
9.72242e-07
9.72243e-07
9.72241e-07
9.74016e-07
9.74729e-07
9.74526e-07
9.73586e-07
9.72242e-07
9.72242e-07
9.72242e-07
9.72243e-07
9.72242e-07
9.72242e-07
9.72242e-07
9.73802e-07
9.74018e-07
9.74706e-07
9.74553e-07
9.73889e-07
9.73563e-07
9.72242e-07
9.72243e-07
9.72242e-07
9.72243e-07
9.72242e-07
9.73769e-07
9.73937e-07
9.74065e-07
9.74543e-07
9.73886e-07
9.73588e-07
9.72241e-07
9.72242e-07
9.72241e-07
9.73802e-07
9.73937e-07
9.74041e-07
9.74688e-07
9.74546e-07
9.73972e-07
9.74023e-07
9.74012e-07
9.74016e-07
9.74018e-07
9.74065e-07
9.74688e-07
9.74569e-07
9.74714e-07
9.74729e-07
9.74729e-07
9.74706e-07
9.65487e-07
9.64732e-07
9.64668e-07
9.64716e-07
9.65492e-07
9.65519e-07
9.65505e-07
9.64839e-07
9.64402e-07
9.63207e-07
9.63208e-07
9.63207e-07
9.64552e-07
9.64854e-07
9.65509e-07
9.64839e-07
9.64365e-07
9.63207e-07
9.63209e-07
9.63208e-07
9.63209e-07
9.63207e-07
9.64529e-07
9.64852e-07
9.65512e-07
9.65487e-07
9.64402e-07
9.63207e-07
9.63208e-07
9.63208e-07
9.63208e-07
9.63208e-07
9.63208e-07
9.63207e-07
9.64554e-07
9.64938e-07
9.65535e-07
9.64732e-07
9.63207e-07
9.63209e-07
9.63208e-07
9.63209e-07
9.63208e-07
9.63209e-07
9.63208e-07
9.63209e-07
9.63207e-07
9.64989e-07
9.6568e-07
9.64668e-07
9.63208e-07
9.63208e-07
9.63208e-07
9.63208e-07
9.63209e-07
9.63208e-07
9.63208e-07
9.63208e-07
9.63208e-07
9.64978e-07
9.65695e-07
9.64716e-07
9.63207e-07
9.63209e-07
9.63208e-07
9.63209e-07
9.63208e-07
9.63209e-07
9.63208e-07
9.63209e-07
9.63207e-07
9.64982e-07
9.65695e-07
9.65492e-07
9.64552e-07
9.63207e-07
9.63208e-07
9.63208e-07
9.63208e-07
9.63208e-07
9.63208e-07
9.63207e-07
9.64767e-07
9.64984e-07
9.65672e-07
9.65519e-07
9.64854e-07
9.64529e-07
9.63207e-07
9.63209e-07
9.63208e-07
9.63209e-07
9.63207e-07
9.64734e-07
9.64903e-07
9.65031e-07
9.65509e-07
9.64852e-07
9.64554e-07
9.63207e-07
9.63208e-07
9.63207e-07
9.64767e-07
9.64903e-07
9.65006e-07
9.65654e-07
9.65512e-07
9.64938e-07
9.64989e-07
9.64978e-07
9.64982e-07
9.64984e-07
9.65031e-07
9.65654e-07
9.65535e-07
9.6568e-07
9.65695e-07
9.65695e-07
9.65672e-07
9.56453e-07
9.55698e-07
9.55634e-07
9.55682e-07
9.56458e-07
9.56485e-07
9.56471e-07
9.55805e-07
9.55368e-07
9.54173e-07
9.54174e-07
9.54173e-07
9.55518e-07
9.5582e-07
9.56475e-07
9.55805e-07
9.55331e-07
9.54173e-07
9.54175e-07
9.54174e-07
9.54175e-07
9.54173e-07
9.55495e-07
9.55818e-07
9.56478e-07
9.56453e-07
9.55368e-07
9.54173e-07
9.54174e-07
9.54174e-07
9.54174e-07
9.54174e-07
9.54174e-07
9.54173e-07
9.5552e-07
9.55904e-07
9.56501e-07
9.55698e-07
9.54173e-07
9.54175e-07
9.54174e-07
9.54175e-07
9.54174e-07
9.54175e-07
9.54174e-07
9.54175e-07
9.54173e-07
9.55954e-07
9.56646e-07
9.55634e-07
9.54174e-07
9.54174e-07
9.54174e-07
9.54174e-07
9.54174e-07
9.54174e-07
9.54174e-07
9.54174e-07
9.54173e-07
9.55944e-07
9.56661e-07
9.55682e-07
9.54173e-07
9.54175e-07
9.54174e-07
9.54175e-07
9.54174e-07
9.54175e-07
9.54174e-07
9.54175e-07
9.54173e-07
9.55948e-07
9.56661e-07
9.56458e-07
9.55518e-07
9.54173e-07
9.54174e-07
9.54174e-07
9.54174e-07
9.54174e-07
9.54174e-07
9.54173e-07
9.55733e-07
9.5595e-07
9.56638e-07
9.56485e-07
9.5582e-07
9.55495e-07
9.54173e-07
9.54175e-07
9.54174e-07
9.54175e-07
9.54173e-07
9.557e-07
9.55869e-07
9.55997e-07
9.56475e-07
9.55818e-07
9.5552e-07
9.54173e-07
9.54173e-07
9.54173e-07
9.55733e-07
9.55869e-07
9.55972e-07
9.5662e-07
9.56478e-07
9.55904e-07
9.55954e-07
9.55944e-07
9.55948e-07
9.5595e-07
9.55997e-07
9.5662e-07
9.56501e-07
9.56646e-07
9.56661e-07
9.56661e-07
9.56638e-07
9.47419e-07
9.46664e-07
9.466e-07
9.46648e-07
9.47424e-07
9.47451e-07
9.47437e-07
9.46771e-07
9.46333e-07
9.45139e-07
9.45139e-07
9.45139e-07
9.46484e-07
9.46786e-07
9.4744e-07
9.46771e-07
9.46297e-07
9.45139e-07
9.45141e-07
9.4514e-07
9.45141e-07
9.45139e-07
9.46461e-07
9.46784e-07
9.47444e-07
9.47419e-07
9.46334e-07
9.45139e-07
9.4514e-07
9.45139e-07
9.4514e-07
9.45139e-07
9.4514e-07
9.45139e-07
9.46486e-07
9.46869e-07
9.47467e-07
9.46664e-07
9.45139e-07
9.45141e-07
9.45139e-07
9.45141e-07
9.4514e-07
9.45141e-07
9.45139e-07
9.45141e-07
9.45139e-07
9.4692e-07
9.47611e-07
9.466e-07
9.45139e-07
9.4514e-07
9.4514e-07
9.4514e-07
9.4514e-07
9.4514e-07
9.4514e-07
9.4514e-07
9.45139e-07
9.4691e-07
9.47626e-07
9.46648e-07
9.45139e-07
9.45141e-07
9.45139e-07
9.45141e-07
9.4514e-07
9.45141e-07
9.45139e-07
9.45141e-07
9.45139e-07
9.46913e-07
9.47627e-07
9.47424e-07
9.46484e-07
9.45139e-07
9.4514e-07
9.45139e-07
9.4514e-07
9.45139e-07
9.4514e-07
9.45139e-07
9.46699e-07
9.46916e-07
9.47604e-07
9.47451e-07
9.46786e-07
9.46461e-07
9.45139e-07
9.45141e-07
9.4514e-07
9.45141e-07
9.45139e-07
9.46666e-07
9.46835e-07
9.46963e-07
9.47441e-07
9.46784e-07
9.46486e-07
9.45139e-07
9.45139e-07
9.45139e-07
9.46699e-07
9.46835e-07
9.46938e-07
9.47586e-07
9.47444e-07
9.46869e-07
9.4692e-07
9.4691e-07
9.46913e-07
9.46916e-07
9.46963e-07
9.47586e-07
9.47467e-07
9.47611e-07
9.47626e-07
9.47627e-07
9.47604e-07
9.38385e-07
9.3763e-07
9.37566e-07
9.37614e-07
9.3839e-07
9.38417e-07
9.38403e-07
9.37736e-07
9.37299e-07
9.36105e-07
9.36105e-07
9.36105e-07
9.3745e-07
9.37752e-07
9.38406e-07
9.37737e-07
9.37263e-07
9.36105e-07
9.36107e-07
9.36105e-07
9.36106e-07
9.36105e-07
9.37427e-07
9.3775e-07
9.3841e-07
9.38385e-07
9.37299e-07
9.36105e-07
9.36106e-07
9.36105e-07
9.36106e-07
9.36105e-07
9.36106e-07
9.36105e-07
9.37452e-07
9.37835e-07
9.38432e-07
9.3763e-07
9.36105e-07
9.36107e-07
9.36105e-07
9.36106e-07
9.36105e-07
9.36106e-07
9.36105e-07
9.36106e-07
9.36105e-07
9.37886e-07
9.38577e-07
9.37566e-07
9.36105e-07
9.36106e-07
9.36106e-07
9.36105e-07
9.36106e-07
9.36105e-07
9.36106e-07
9.36105e-07
9.36105e-07
9.37876e-07
9.38592e-07
9.37614e-07
9.36105e-07
9.36107e-07
9.36105e-07
9.36106e-07
9.36105e-07
9.36106e-07
9.36105e-07
9.36106e-07
9.36105e-07
9.37879e-07
9.38593e-07
9.3839e-07
9.3745e-07
9.36105e-07
9.36106e-07
9.36105e-07
9.36106e-07
9.36105e-07
9.36106e-07
9.36105e-07
9.37665e-07
9.37882e-07
9.38569e-07
9.38417e-07
9.37752e-07
9.37427e-07
9.36105e-07
9.36107e-07
9.36105e-07
9.36107e-07
9.36105e-07
9.37632e-07
9.37801e-07
9.37929e-07
9.38406e-07
9.3775e-07
9.37452e-07
9.36105e-07
9.36105e-07
9.36105e-07
9.37665e-07
9.37801e-07
9.37904e-07
9.38552e-07
9.3841e-07
9.37835e-07
9.37886e-07
9.37876e-07
9.37879e-07
9.37882e-07
9.37929e-07
9.38552e-07
9.38433e-07
9.38577e-07
9.38592e-07
9.38593e-07
9.38569e-07
9.2935e-07
9.28595e-07
9.28532e-07
9.2858e-07
9.29356e-07
9.29383e-07
9.29369e-07
9.28702e-07
9.28265e-07
9.27071e-07
9.27071e-07
9.27071e-07
9.28416e-07
9.28718e-07
9.29372e-07
9.28702e-07
9.28229e-07
9.27071e-07
9.27072e-07
9.27071e-07
9.27072e-07
9.27071e-07
9.28393e-07
9.28716e-07
9.29376e-07
9.2935e-07
9.28265e-07
9.27071e-07
9.27072e-07
9.27071e-07
9.27071e-07
9.27071e-07
9.27072e-07
9.27071e-07
9.28418e-07
9.28801e-07
9.29398e-07
9.28595e-07
9.27071e-07
9.27072e-07
9.27071e-07
9.27072e-07
9.27071e-07
9.27072e-07
9.27071e-07
9.27072e-07
9.27071e-07
9.28852e-07
9.29543e-07
9.28532e-07
9.27071e-07
9.27071e-07
9.27071e-07
9.27071e-07
9.27071e-07
9.27071e-07
9.27071e-07
9.27071e-07
9.27071e-07
9.28842e-07
9.29558e-07
9.2858e-07
9.27071e-07
9.27072e-07
9.27071e-07
9.27072e-07
9.27071e-07
9.27072e-07
9.27071e-07
9.27072e-07
9.27071e-07
9.28845e-07
9.29559e-07
9.29356e-07
9.28416e-07
9.27071e-07
9.27072e-07
9.27071e-07
9.27071e-07
9.27071e-07
9.27072e-07
9.27071e-07
9.28631e-07
9.28847e-07
9.29535e-07
9.29383e-07
9.28718e-07
9.28393e-07
9.27071e-07
9.27072e-07
9.27071e-07
9.27072e-07
9.27071e-07
9.28598e-07
9.28767e-07
9.28895e-07
9.29372e-07
9.28716e-07
9.28418e-07
9.27071e-07
9.27071e-07
9.27071e-07
9.28631e-07
9.28767e-07
9.2887e-07
9.29518e-07
9.29376e-07
9.28801e-07
9.28852e-07
9.28842e-07
9.28845e-07
9.28847e-07
9.28895e-07
9.29518e-07
9.29398e-07
9.29543e-07
9.29558e-07
9.29559e-07
9.29535e-07
9.20316e-07
9.19561e-07
9.19498e-07
9.19546e-07
9.20322e-07
9.20349e-07
9.20335e-07
9.19668e-07
9.19231e-07
9.18036e-07
9.18037e-07
9.18036e-07
9.19382e-07
9.19684e-07
9.20338e-07
9.19668e-07
9.19195e-07
9.18037e-07
9.18038e-07
9.18037e-07
9.18038e-07
9.18037e-07
9.19359e-07
9.19682e-07
9.20342e-07
9.20316e-07
9.19231e-07
9.18037e-07
9.18038e-07
9.18037e-07
9.18037e-07
9.18037e-07
9.18038e-07
9.18037e-07
9.19384e-07
9.19767e-07
9.20364e-07
9.19561e-07
9.18036e-07
9.18038e-07
9.18037e-07
9.18038e-07
9.18037e-07
9.18038e-07
9.18037e-07
9.18038e-07
9.18037e-07
9.19818e-07
9.20509e-07
9.19498e-07
9.18037e-07
9.18037e-07
9.18037e-07
9.18037e-07
9.18037e-07
9.18037e-07
9.18037e-07
9.18037e-07
9.18037e-07
9.19808e-07
9.20524e-07
9.19546e-07
9.18036e-07
9.18038e-07
9.18037e-07
9.18038e-07
9.18037e-07
9.18038e-07
9.18037e-07
9.18038e-07
9.18037e-07
9.19811e-07
9.20525e-07
9.20322e-07
9.19382e-07
9.18037e-07
9.18038e-07
9.18037e-07
9.18037e-07
9.18037e-07
9.18038e-07
9.18037e-07
9.19597e-07
9.19813e-07
9.20501e-07
9.20349e-07
9.19684e-07
9.19359e-07
9.18037e-07
9.18038e-07
9.18037e-07
9.18038e-07
9.18037e-07
9.19564e-07
9.19733e-07
9.19861e-07
9.20338e-07
9.19682e-07
9.19384e-07
9.18037e-07
9.18037e-07
9.18037e-07
9.19597e-07
9.19733e-07
9.19836e-07
9.20484e-07
9.20342e-07
9.19767e-07
9.19818e-07
9.19808e-07
9.19811e-07
9.19813e-07
9.19861e-07
9.20483e-07
9.20364e-07
9.20509e-07
9.20524e-07
9.20525e-07
9.20501e-07
9.11282e-07
9.10527e-07
9.10464e-07
9.10512e-07
9.11288e-07
9.11315e-07
9.11301e-07
9.10634e-07
9.10197e-07
9.09002e-07
9.09003e-07
9.09002e-07
9.10347e-07
9.1065e-07
9.11304e-07
9.10634e-07
9.10161e-07
9.09003e-07
9.09004e-07
9.09003e-07
9.09004e-07
9.09003e-07
9.10325e-07
9.10648e-07
9.11308e-07
9.11282e-07
9.10197e-07
9.09003e-07
9.09004e-07
9.09003e-07
9.09003e-07
9.09003e-07
9.09004e-07
9.09003e-07
9.1035e-07
9.10733e-07
9.1133e-07
9.10527e-07
9.09002e-07
9.09004e-07
9.09003e-07
9.09004e-07
9.09003e-07
9.09004e-07
9.09003e-07
9.09004e-07
9.09002e-07
9.10784e-07
9.11475e-07
9.10464e-07
9.09003e-07
9.09003e-07
9.09003e-07
9.09003e-07
9.09003e-07
9.09003e-07
9.09003e-07
9.09003e-07
9.09003e-07
9.10774e-07
9.1149e-07
9.10512e-07
9.09002e-07
9.09004e-07
9.09003e-07
9.09004e-07
9.09003e-07
9.09004e-07
9.09003e-07
9.09004e-07
9.09002e-07
9.10777e-07
9.11491e-07
9.11288e-07
9.10347e-07
9.09003e-07
9.09004e-07
9.09003e-07
9.09003e-07
9.09003e-07
9.09004e-07
9.09003e-07
9.10563e-07
9.10779e-07
9.11467e-07
9.11314e-07
9.1065e-07
9.10325e-07
9.09003e-07
9.09004e-07
9.09003e-07
9.09004e-07
9.09003e-07
9.1053e-07
9.10699e-07
9.10826e-07
9.11304e-07
9.10648e-07
9.1035e-07
9.09002e-07
9.09003e-07
9.09002e-07
9.10563e-07
9.10699e-07
9.10802e-07
9.1145e-07
9.11308e-07
9.10733e-07
9.10784e-07
9.10774e-07
9.10777e-07
9.10779e-07
9.10826e-07
9.11449e-07
9.1133e-07
9.11475e-07
9.1149e-07
9.11491e-07
9.11467e-07
9.02248e-07
9.01493e-07
9.0143e-07
9.01478e-07
9.02254e-07
9.0228e-07
9.02267e-07
9.016e-07
9.01163e-07
8.99968e-07
8.99969e-07
8.99968e-07
9.01313e-07
9.01616e-07
9.0227e-07
9.016e-07
9.01127e-07
8.99969e-07
8.9997e-07
8.99969e-07
8.9997e-07
8.99969e-07
9.01291e-07
9.01614e-07
9.02273e-07
9.02248e-07
9.01163e-07
8.99969e-07
8.99969e-07
8.99969e-07
8.99969e-07
8.99969e-07
8.99969e-07
8.99969e-07
9.01316e-07
9.01699e-07
9.02296e-07
9.01493e-07
8.99968e-07
8.9997e-07
8.99969e-07
8.9997e-07
8.99969e-07
8.9997e-07
8.99969e-07
8.9997e-07
8.99968e-07
9.0175e-07
9.02441e-07
9.0143e-07
8.99969e-07
8.99969e-07
8.99969e-07
8.99969e-07
8.99969e-07
8.99969e-07
8.99969e-07
8.99969e-07
8.99969e-07
9.0174e-07
9.02456e-07
9.01478e-07
8.99968e-07
8.9997e-07
8.99969e-07
8.9997e-07
8.99969e-07
8.9997e-07
8.99969e-07
8.9997e-07
8.99968e-07
9.01743e-07
9.02457e-07
9.02254e-07
9.01313e-07
8.99969e-07
8.99969e-07
8.99969e-07
8.99969e-07
8.99969e-07
8.99969e-07
8.99969e-07
9.01529e-07
9.01745e-07
9.02433e-07
9.0228e-07
9.01616e-07
9.0129e-07
8.99969e-07
8.9997e-07
8.99969e-07
8.9997e-07
8.99969e-07
9.01496e-07
9.01664e-07
9.01792e-07
9.0227e-07
9.01613e-07
9.01316e-07
8.99968e-07
8.99969e-07
8.99968e-07
9.01529e-07
9.01665e-07
9.01768e-07
9.02415e-07
9.02273e-07
9.01699e-07
9.0175e-07
9.01739e-07
9.01743e-07
9.01745e-07
9.01792e-07
9.02415e-07
9.02296e-07
9.02441e-07
9.02456e-07
9.02457e-07
9.02433e-07
8.93214e-07
8.92459e-07
8.92396e-07
8.92444e-07
8.9322e-07
8.93246e-07
8.93233e-07
8.92566e-07
8.92129e-07
8.90934e-07
8.90935e-07
8.90934e-07
8.92279e-07
8.92582e-07
8.93236e-07
8.92566e-07
8.92093e-07
8.90935e-07
8.90936e-07
8.90935e-07
8.90936e-07
8.90935e-07
8.92256e-07
8.92579e-07
8.93239e-07
8.93214e-07
8.92129e-07
8.90935e-07
8.90935e-07
8.90935e-07
8.90935e-07
8.90935e-07
8.90935e-07
8.90935e-07
8.92281e-07
8.92665e-07
8.93262e-07
8.92459e-07
8.90934e-07
8.90936e-07
8.90935e-07
8.90936e-07
8.90935e-07
8.90936e-07
8.90935e-07
8.90936e-07
8.90934e-07
8.92716e-07
8.93407e-07
8.92396e-07
8.90935e-07
8.90935e-07
8.90935e-07
8.90935e-07
8.90935e-07
8.90935e-07
8.90935e-07
8.90935e-07
8.90935e-07
8.92705e-07
8.93422e-07
8.92444e-07
8.90934e-07
8.90936e-07
8.90935e-07