/*--------------------------------*- C++ -*----------------------------------*\
| =========                 |                                                 |
| \\      /  F ield         | OpenFOAM: The Open Source CFD Toolbox           |
|  \\    /   O peration     | Version:  v2012                                 |
|   \\  /    A nd           | Website:  www.openfoam.com                      |
|    \\/     M anipulation  |                                                 |
\*---------------------------------------------------------------------------*/
FoamFile
{
    version     2.0;
    format      ascii;
    class       volScalarField;
    location    "52";
    object      p;
}
// * * * * * * * * * * * * * * * * * * * * * * * * * * * * * * * * * * * * * //

dimensions      [0 2 -2 0 0 0 0];


internalField   nonuniform List<scalar> 
292667
(
1.17985e-06
1.17049e-06
1.16974e-06
1.16981e-06
1.17083e-06
1.18075e-06
1.1707e-06
1.1681e-06
1.16658e-06
1.16595e-06
1.16603e-06
1.16685e-06
1.1686e-06
1.17144e-06
1.1707e-06
1.16734e-06
1.16524e-06
1.16408e-06
1.1636e-06
1.16366e-06
1.16429e-06
1.16564e-06
1.168e-06
1.17165e-06
1.17985e-06
1.1681e-06
1.16524e-06
1.16354e-06
1.16259e-06
1.16218e-06
1.16224e-06
1.16276e-06
1.16387e-06
1.1658e-06
1.169e-06
1.17947e-06
1.17049e-06
1.16658e-06
1.16408e-06
1.16259e-06
1.16174e-06
1.16137e-06
1.16142e-06
1.1619e-06
1.16289e-06
1.16458e-06
1.16741e-06
1.17409e-06
1.16974e-06
1.16595e-06
1.1636e-06
1.16218e-06
1.16137e-06
1.16102e-06
1.16107e-06
1.16153e-06
1.16247e-06
1.16408e-06
1.16676e-06
1.17246e-06
1.16981e-06
1.16603e-06
1.16366e-06
1.16224e-06
1.16142e-06
1.16107e-06
1.16112e-06
1.16158e-06
1.16253e-06
1.16415e-06
1.16685e-06
1.17277e-06
1.17083e-06
1.16685e-06
1.16429e-06
1.16276e-06
1.1619e-06
1.16153e-06
1.16158e-06
1.16207e-06
1.16307e-06
1.16482e-06
1.16772e-06
1.1744e-06
1.18075e-06
1.1686e-06
1.16564e-06
1.16387e-06
1.16289e-06
1.16247e-06
1.16253e-06
1.16307e-06
1.16423e-06
1.16625e-06
1.16956e-06
1.17936e-06
1.17144e-06
1.168e-06
1.1658e-06
1.16458e-06
1.16408e-06
1.16415e-06
1.16482e-06
1.16625e-06
1.16875e-06
1.17505e-06
1.17165e-06
1.169e-06
1.16741e-06
1.16676e-06
1.16685e-06
1.16772e-06
1.16956e-06
1.17505e-06
1.17947e-06
1.17409e-06
1.17246e-06
1.17277e-06
1.1744e-06
1.17936e-06
1.15367e-06
1.15285e-06
1.15281e-06
1.15286e-06
1.15366e-06
1.15355e-06
1.15372e-06
1.15307e-06
1.15269e-06
1.15133e-06
1.15131e-06
1.15133e-06
1.15285e-06
1.15311e-06
1.15375e-06
1.15307e-06
1.15269e-06
1.15138e-06
1.15132e-06
1.15137e-06
1.15132e-06
1.15138e-06
1.15283e-06
1.15309e-06
1.15372e-06
1.15368e-06
1.15269e-06
1.15138e-06
1.15131e-06
1.15135e-06
1.15134e-06
1.15135e-06
1.15132e-06
1.15138e-06
1.15283e-06
1.15311e-06
1.15379e-06
1.15285e-06
1.15133e-06
1.15132e-06
1.15135e-06
1.15131e-06
1.15131e-06
1.15131e-06
1.15135e-06
1.15132e-06
1.15133e-06
1.15326e-06
1.15392e-06
1.15281e-06
1.15131e-06
1.15137e-06
1.15134e-06
1.15131e-06
1.15131e-06
1.15131e-06
1.15134e-06
1.15137e-06
1.15131e-06
1.15327e-06
1.15382e-06
1.15286e-06
1.15133e-06
1.15132e-06
1.15135e-06
1.15131e-06
1.15131e-06
1.15131e-06
1.15135e-06
1.15132e-06
1.15133e-06
1.15327e-06
1.15385e-06
1.15366e-06
1.15285e-06
1.15138e-06
1.15132e-06
1.15135e-06
1.15134e-06
1.15135e-06
1.15132e-06
1.15138e-06
1.153e-06
1.15317e-06
1.15388e-06
1.15355e-06
1.15311e-06
1.15283e-06
1.15138e-06
1.15132e-06
1.15137e-06
1.15132e-06
1.15138e-06
1.15297e-06
1.15314e-06
1.15315e-06
1.15375e-06
1.15309e-06
1.15283e-06
1.15133e-06
1.15131e-06
1.15133e-06
1.153e-06
1.15314e-06
1.15321e-06
1.15385e-06
1.15372e-06
1.15311e-06
1.15326e-06
1.15327e-06
1.15327e-06
1.15317e-06
1.15315e-06
1.15385e-06
1.15379e-06
1.15392e-06
1.15382e-06
1.15385e-06
1.15388e-06
1.14386e-06
1.14301e-06
1.14295e-06
1.143e-06
1.14385e-06
1.14389e-06
1.14389e-06
1.14314e-06
1.14271e-06
1.14138e-06
1.14137e-06
1.14138e-06
1.14286e-06
1.14317e-06
1.14387e-06
1.14314e-06
1.14269e-06
1.14143e-06
1.14142e-06
1.14146e-06
1.14142e-06
1.14143e-06
1.14286e-06
1.14317e-06
1.14387e-06
1.14386e-06
1.14271e-06
1.14143e-06
1.14144e-06
1.14149e-06
1.14149e-06
1.14149e-06
1.14144e-06
1.14143e-06
1.14287e-06
1.14323e-06
1.14391e-06
1.14301e-06
1.14138e-06
1.14143e-06
1.14149e-06
1.1415e-06
1.14152e-06
1.1415e-06
1.14149e-06
1.14143e-06
1.14138e-06
1.14327e-06
1.14404e-06
1.14295e-06
1.14137e-06
1.14146e-06
1.14149e-06
1.14152e-06
1.14153e-06
1.14152e-06
1.14149e-06
1.14146e-06
1.14137e-06
1.14327e-06
1.14405e-06
1.143e-06
1.14138e-06
1.14143e-06
1.14149e-06
1.1415e-06
1.14152e-06
1.1415e-06
1.14149e-06
1.14143e-06
1.14138e-06
1.14327e-06
1.14405e-06
1.14385e-06
1.14286e-06
1.14143e-06
1.14144e-06
1.14149e-06
1.14149e-06
1.14149e-06
1.14144e-06
1.14143e-06
1.14307e-06
1.14327e-06
1.14404e-06
1.14389e-06
1.14317e-06
1.14286e-06
1.14143e-06
1.14143e-06
1.14146e-06
1.14143e-06
1.14143e-06
1.14304e-06
1.1432e-06
1.1433e-06
1.14387e-06
1.14317e-06
1.14287e-06
1.14138e-06
1.14138e-06
1.14138e-06
1.14307e-06
1.1432e-06
1.14329e-06
1.14402e-06
1.14387e-06
1.14323e-06
1.14327e-06
1.14327e-06
1.14327e-06
1.14327e-06
1.1433e-06
1.14402e-06
1.14391e-06
1.14404e-06
1.14405e-06
1.14405e-06
1.14404e-06
1.13408e-06
1.13322e-06
1.13316e-06
1.13321e-06
1.13407e-06
1.13411e-06
1.13411e-06
1.13335e-06
1.13289e-06
1.13154e-06
1.13154e-06
1.13154e-06
1.13304e-06
1.13336e-06
1.13409e-06
1.13335e-06
1.13286e-06
1.13157e-06
1.13158e-06
1.1316e-06
1.13158e-06
1.13157e-06
1.13303e-06
1.13336e-06
1.13409e-06
1.13408e-06
1.13289e-06
1.13157e-06
1.13159e-06
1.13163e-06
1.13163e-06
1.13163e-06
1.13159e-06
1.13157e-06
1.13304e-06
1.13343e-06
1.13413e-06
1.13322e-06
1.13154e-06
1.13158e-06
1.13163e-06
1.13164e-06
1.13166e-06
1.13164e-06
1.13163e-06
1.13158e-06
1.13154e-06
1.13347e-06
1.13427e-06
1.13316e-06
1.13154e-06
1.1316e-06
1.13163e-06
1.13166e-06
1.13166e-06
1.13166e-06
1.13163e-06
1.1316e-06
1.13154e-06
1.13346e-06
1.13427e-06
1.13321e-06
1.13154e-06
1.13158e-06
1.13163e-06
1.13164e-06
1.13166e-06
1.13164e-06
1.13163e-06
1.13158e-06
1.13154e-06
1.13347e-06
1.13427e-06
1.13407e-06
1.13304e-06
1.13157e-06
1.13159e-06
1.13163e-06
1.13163e-06
1.13163e-06
1.13159e-06
1.13157e-06
1.13325e-06
1.13347e-06
1.13426e-06
1.13411e-06
1.13336e-06
1.13303e-06
1.13157e-06
1.13158e-06
1.1316e-06
1.13158e-06
1.13157e-06
1.13322e-06
1.1334e-06
1.13352e-06
1.13409e-06
1.13336e-06
1.13304e-06
1.13154e-06
1.13154e-06
1.13154e-06
1.13325e-06
1.1334e-06
1.1335e-06
1.13425e-06
1.13409e-06
1.13343e-06
1.13347e-06
1.13346e-06
1.13347e-06
1.13347e-06
1.13352e-06
1.13425e-06
1.13413e-06
1.13427e-06
1.13427e-06
1.13427e-06
1.13426e-06
1.1243e-06
1.12344e-06
1.12337e-06
1.12342e-06
1.12429e-06
1.12433e-06
1.12433e-06
1.12356e-06
1.1231e-06
1.12174e-06
1.12174e-06
1.12174e-06
1.12324e-06
1.12357e-06
1.12431e-06
1.12356e-06
1.12307e-06
1.12175e-06
1.12176e-06
1.12177e-06
1.12176e-06
1.12175e-06
1.12323e-06
1.12357e-06
1.12431e-06
1.1243e-06
1.1231e-06
1.12175e-06
1.12177e-06
1.12179e-06
1.12179e-06
1.12179e-06
1.12177e-06
1.12175e-06
1.12325e-06
1.12365e-06
1.12435e-06
1.12344e-06
1.12174e-06
1.12176e-06
1.12179e-06
1.1218e-06
1.12181e-06
1.1218e-06
1.12179e-06
1.12176e-06
1.12174e-06
1.12369e-06
1.12448e-06
1.12337e-06
1.12174e-06
1.12177e-06
1.12179e-06
1.12181e-06
1.12182e-06
1.12181e-06
1.12179e-06
1.12177e-06
1.12174e-06
1.12367e-06
1.12449e-06
1.12342e-06
1.12174e-06
1.12176e-06
1.12179e-06
1.1218e-06
1.12181e-06
1.1218e-06
1.12179e-06
1.12176e-06
1.12174e-06
1.12368e-06
1.12449e-06
1.12429e-06
1.12324e-06
1.12175e-06
1.12177e-06
1.12179e-06
1.12179e-06
1.12179e-06
1.12177e-06
1.12175e-06
1.12345e-06
1.12369e-06
1.12448e-06
1.12433e-06
1.12357e-06
1.12323e-06
1.12175e-06
1.12176e-06
1.12177e-06
1.12176e-06
1.12175e-06
1.12342e-06
1.12361e-06
1.12374e-06
1.12431e-06
1.12357e-06
1.12325e-06
1.12174e-06
1.12174e-06
1.12174e-06
1.12345e-06
1.12361e-06
1.12372e-06
1.12447e-06
1.12431e-06
1.12365e-06
1.12369e-06
1.12367e-06
1.12368e-06
1.12369e-06
1.12374e-06
1.12447e-06
1.12435e-06
1.12448e-06
1.12449e-06
1.12449e-06
1.12448e-06
1.11452e-06
1.11366e-06
1.11359e-06
1.11364e-06
1.1145e-06
1.11455e-06
1.11455e-06
1.11378e-06
1.11331e-06
1.11195e-06
1.11195e-06
1.11195e-06
1.11346e-06
1.11379e-06
1.11453e-06
1.11378e-06
1.11328e-06
1.11195e-06
1.11196e-06
1.11197e-06
1.11196e-06
1.11195e-06
1.11343e-06
1.11378e-06
1.11453e-06
1.11452e-06
1.11331e-06
1.11195e-06
1.11196e-06
1.11198e-06
1.11198e-06
1.11198e-06
1.11196e-06
1.11195e-06
1.11346e-06
1.11387e-06
1.11457e-06
1.11366e-06
1.11195e-06
1.11196e-06
1.11198e-06
1.11199e-06
1.11199e-06
1.11199e-06
1.11198e-06
1.11196e-06
1.11195e-06
1.1139e-06
1.1147e-06
1.11359e-06
1.11195e-06
1.11197e-06
1.11198e-06
1.11199e-06
1.11199e-06
1.11199e-06
1.11198e-06
1.11197e-06
1.11195e-06
1.11389e-06
1.11471e-06
1.11364e-06
1.11195e-06
1.11196e-06
1.11198e-06
1.11199e-06
1.11199e-06
1.11199e-06
1.11198e-06
1.11196e-06
1.11195e-06
1.11389e-06
1.11471e-06
1.1145e-06
1.11346e-06
1.11195e-06
1.11196e-06
1.11198e-06
1.11198e-06
1.11198e-06
1.11196e-06
1.11195e-06
1.11366e-06
1.11391e-06
1.1147e-06
1.11455e-06
1.11379e-06
1.11343e-06
1.11195e-06
1.11196e-06
1.11197e-06
1.11196e-06
1.11195e-06
1.11363e-06
1.11382e-06
1.11396e-06
1.11453e-06
1.11378e-06
1.11346e-06
1.11195e-06
1.11195e-06
1.11195e-06
1.11366e-06
1.11382e-06
1.11394e-06
1.11469e-06
1.11453e-06
1.11387e-06
1.1139e-06
1.11389e-06
1.11389e-06
1.11391e-06
1.11396e-06
1.11469e-06
1.11457e-06
1.1147e-06
1.11471e-06
1.11471e-06
1.1147e-06
1.10474e-06
1.10387e-06
1.1038e-06
1.10385e-06
1.10472e-06
1.10477e-06
1.10477e-06
1.10399e-06
1.10352e-06
1.10216e-06
1.10216e-06
1.10216e-06
1.10367e-06
1.104e-06
1.10475e-06
1.10399e-06
1.10349e-06
1.10216e-06
1.10217e-06
1.10217e-06
1.10217e-06
1.10216e-06
1.10365e-06
1.104e-06
1.10475e-06
1.10474e-06
1.10352e-06
1.10216e-06
1.10217e-06
1.10218e-06
1.10218e-06
1.10218e-06
1.10217e-06
1.10216e-06
1.10367e-06
1.10408e-06
1.10479e-06
1.10387e-06
1.10216e-06
1.10217e-06
1.10218e-06
1.10218e-06
1.10218e-06
1.10218e-06
1.10218e-06
1.10217e-06
1.10216e-06
1.10412e-06
1.10492e-06
1.1038e-06
1.10216e-06
1.10217e-06
1.10218e-06
1.10218e-06
1.10219e-06
1.10218e-06
1.10218e-06
1.10217e-06
1.10216e-06
1.1041e-06
1.10492e-06
1.10385e-06
1.10216e-06
1.10217e-06
1.10218e-06
1.10218e-06
1.10218e-06
1.10218e-06
1.10218e-06
1.10217e-06
1.10216e-06
1.10411e-06
1.10493e-06
1.10472e-06
1.10367e-06
1.10216e-06
1.10217e-06
1.10218e-06
1.10218e-06
1.10218e-06
1.10217e-06
1.10216e-06
1.10388e-06
1.10412e-06
1.10492e-06
1.10477e-06
1.104e-06
1.10365e-06
1.10216e-06
1.10217e-06
1.10217e-06
1.10217e-06
1.10216e-06
1.10384e-06
1.10404e-06
1.10418e-06
1.10475e-06
1.104e-06
1.10367e-06
1.10216e-06
1.10216e-06
1.10216e-06
1.10388e-06
1.10404e-06
1.10415e-06
1.1049e-06
1.10475e-06
1.10408e-06
1.10412e-06
1.1041e-06
1.10411e-06
1.10412e-06
1.10418e-06
1.1049e-06
1.10479e-06
1.10492e-06
1.10492e-06
1.10493e-06
1.10492e-06
1.09495e-06
1.09409e-06
1.09402e-06
1.09407e-06
1.09494e-06
1.09498e-06
1.09498e-06
1.09421e-06
1.09374e-06
1.09237e-06
1.09237e-06
1.09237e-06
1.09389e-06
1.09422e-06
1.09496e-06
1.09421e-06
1.0937e-06
1.09237e-06
1.09238e-06
1.09238e-06
1.09238e-06
1.09237e-06
1.09386e-06
1.09421e-06
1.09496e-06
1.09495e-06
1.09374e-06
1.09237e-06
1.09238e-06
1.09238e-06
1.09238e-06
1.09238e-06
1.09238e-06
1.09237e-06
1.09389e-06
1.0943e-06
1.095e-06
1.09409e-06
1.09237e-06
1.09238e-06
1.09238e-06
1.09239e-06
1.09239e-06
1.09239e-06
1.09238e-06
1.09238e-06
1.09237e-06
1.09433e-06
1.09513e-06
1.09402e-06
1.09237e-06
1.09238e-06
1.09238e-06
1.09239e-06
1.09239e-06
1.09239e-06
1.09238e-06
1.09238e-06
1.09237e-06
1.09432e-06
1.09514e-06
1.09407e-06
1.09237e-06
1.09238e-06
1.09238e-06
1.09239e-06
1.09239e-06
1.09239e-06
1.09238e-06
1.09238e-06
1.09237e-06
1.09432e-06
1.09514e-06
1.09494e-06
1.09389e-06
1.09237e-06
1.09238e-06
1.09238e-06
1.09238e-06
1.09238e-06
1.09238e-06
1.09237e-06
1.09409e-06
1.09434e-06
1.09513e-06
1.09498e-06
1.09422e-06
1.09386e-06
1.09237e-06
1.09238e-06
1.09238e-06
1.09238e-06
1.09237e-06
1.09406e-06
1.09425e-06
1.0944e-06
1.09496e-06
1.09421e-06
1.09389e-06
1.09237e-06
1.09237e-06
1.09237e-06
1.09409e-06
1.09425e-06
1.09437e-06
1.09512e-06
1.09496e-06
1.0943e-06
1.09433e-06
1.09432e-06
1.09432e-06
1.09434e-06
1.0944e-06
1.09512e-06
1.095e-06
1.09513e-06
1.09514e-06
1.09514e-06
1.09513e-06
1.08517e-06
1.0843e-06
1.08423e-06
1.08428e-06
1.08515e-06
1.0852e-06
1.0852e-06
1.08443e-06
1.08395e-06
1.08259e-06
1.08259e-06
1.08259e-06
1.0841e-06
1.08443e-06
1.08518e-06
1.08443e-06
1.08392e-06
1.08259e-06
1.08259e-06
1.08259e-06
1.08259e-06
1.08259e-06
1.08408e-06
1.08443e-06
1.08518e-06
1.08517e-06
1.08395e-06
1.08259e-06
1.08259e-06
1.08259e-06
1.08259e-06
1.08259e-06
1.08259e-06
1.08259e-06
1.0841e-06
1.08451e-06
1.08522e-06
1.0843e-06
1.08259e-06
1.08259e-06
1.08259e-06
1.08259e-06
1.08259e-06
1.08259e-06
1.08259e-06
1.08259e-06
1.08259e-06
1.08455e-06
1.08535e-06
1.08423e-06
1.08259e-06
1.08259e-06
1.08259e-06
1.08259e-06
1.0826e-06
1.08259e-06
1.08259e-06
1.08259e-06
1.08259e-06
1.08453e-06
1.08536e-06
1.08428e-06
1.08259e-06
1.08259e-06
1.08259e-06
1.08259e-06
1.08259e-06
1.08259e-06
1.08259e-06
1.08259e-06
1.08259e-06
1.08454e-06
1.08536e-06
1.08515e-06
1.0841e-06
1.08259e-06
1.08259e-06
1.08259e-06
1.08259e-06
1.08259e-06
1.08259e-06
1.08259e-06
1.08431e-06
1.08455e-06
1.08535e-06
1.0852e-06
1.08443e-06
1.08408e-06
1.08259e-06
1.08259e-06
1.08259e-06
1.08259e-06
1.08259e-06
1.08427e-06
1.08447e-06
1.08461e-06
1.08518e-06
1.08443e-06
1.0841e-06
1.08259e-06
1.08259e-06
1.08259e-06
1.08431e-06
1.08447e-06
1.08459e-06
1.08533e-06
1.08518e-06
1.08451e-06
1.08455e-06
1.08453e-06
1.08454e-06
1.08455e-06
1.08461e-06
1.08533e-06
1.08522e-06
1.08535e-06
1.08536e-06
1.08536e-06
1.08535e-06
1.07538e-06
1.07452e-06
1.07445e-06
1.0745e-06
1.07537e-06
1.07541e-06
1.07541e-06
1.07464e-06
1.07417e-06
1.0728e-06
1.0728e-06
1.0728e-06
1.07432e-06
1.07465e-06
1.07539e-06
1.07464e-06
1.07413e-06
1.0728e-06
1.0728e-06
1.0728e-06
1.0728e-06
1.0728e-06
1.07429e-06
1.07464e-06
1.0754e-06
1.07538e-06
1.07417e-06
1.0728e-06
1.0728e-06
1.0728e-06
1.07281e-06
1.0728e-06
1.0728e-06
1.0728e-06
1.07432e-06
1.07473e-06
1.07543e-06
1.07452e-06
1.0728e-06
1.0728e-06
1.0728e-06
1.07281e-06
1.07281e-06
1.07281e-06
1.0728e-06
1.0728e-06
1.0728e-06
1.07476e-06
1.07556e-06
1.07445e-06
1.0728e-06
1.0728e-06
1.07281e-06
1.07281e-06
1.07281e-06
1.07281e-06
1.07281e-06
1.0728e-06
1.0728e-06
1.07475e-06
1.07557e-06
1.0745e-06
1.0728e-06
1.0728e-06
1.0728e-06
1.07281e-06
1.07281e-06
1.07281e-06
1.0728e-06
1.0728e-06
1.0728e-06
1.07475e-06
1.07557e-06
1.07537e-06
1.07432e-06
1.0728e-06
1.0728e-06
1.0728e-06
1.07281e-06
1.0728e-06
1.0728e-06
1.0728e-06
1.07452e-06
1.07477e-06
1.07556e-06
1.07541e-06
1.07465e-06
1.07429e-06
1.0728e-06
1.0728e-06
1.0728e-06
1.0728e-06
1.0728e-06
1.07449e-06
1.07468e-06
1.07483e-06
1.07539e-06
1.07464e-06
1.07432e-06
1.0728e-06
1.0728e-06
1.0728e-06
1.07452e-06
1.07468e-06
1.0748e-06
1.07555e-06
1.0754e-06
1.07473e-06
1.07476e-06
1.07475e-06
1.07475e-06
1.07477e-06
1.07483e-06
1.07555e-06
1.07543e-06
1.07556e-06
1.07557e-06
1.07557e-06
1.07556e-06
1.0656e-06
1.06473e-06
1.06466e-06
1.06471e-06
1.06558e-06
1.06563e-06
1.06563e-06
1.06486e-06
1.06438e-06
1.06302e-06
1.06302e-06
1.06302e-06
1.06453e-06
1.06486e-06
1.06561e-06
1.06486e-06
1.06435e-06
1.06302e-06
1.06302e-06
1.06302e-06
1.06302e-06
1.06302e-06
1.06451e-06
1.06486e-06
1.06561e-06
1.0656e-06
1.06438e-06
1.06302e-06
1.06302e-06
1.06302e-06
1.06302e-06
1.06302e-06
1.06302e-06
1.06302e-06
1.06453e-06
1.06494e-06
1.06565e-06
1.06473e-06
1.06302e-06
1.06302e-06
1.06302e-06
1.06302e-06
1.06302e-06
1.06302e-06
1.06302e-06
1.06302e-06
1.06302e-06
1.06498e-06
1.06578e-06
1.06466e-06
1.06302e-06
1.06302e-06
1.06302e-06
1.06302e-06
1.06302e-06
1.06302e-06
1.06302e-06
1.06302e-06
1.06302e-06
1.06496e-06
1.06579e-06
1.06471e-06
1.06302e-06
1.06302e-06
1.06302e-06
1.06302e-06
1.06302e-06
1.06302e-06
1.06302e-06
1.06302e-06
1.06302e-06
1.06497e-06
1.06579e-06
1.06558e-06
1.06453e-06
1.06302e-06
1.06302e-06
1.06302e-06
1.06302e-06
1.06302e-06
1.06302e-06
1.06302e-06
1.06474e-06
1.06498e-06
1.06578e-06
1.06563e-06
1.06486e-06
1.06451e-06
1.06302e-06
1.06302e-06
1.06302e-06
1.06302e-06
1.06302e-06
1.0647e-06
1.0649e-06
1.06504e-06
1.06561e-06
1.06486e-06
1.06453e-06
1.06302e-06
1.06302e-06
1.06302e-06
1.06474e-06
1.0649e-06
1.06502e-06
1.06576e-06
1.06561e-06
1.06494e-06
1.06498e-06
1.06496e-06
1.06497e-06
1.06498e-06
1.06504e-06
1.06576e-06
1.06565e-06
1.06578e-06
1.06579e-06
1.06579e-06
1.06578e-06
1.05581e-06
1.05495e-06
1.05488e-06
1.05493e-06
1.0558e-06
1.05584e-06
1.05584e-06
1.05507e-06
1.0546e-06
1.05323e-06
1.05323e-06
1.05323e-06
1.05475e-06
1.05508e-06
1.05582e-06
1.05507e-06
1.05456e-06
1.05323e-06
1.05323e-06
1.05323e-06
1.05323e-06
1.05323e-06
1.05472e-06
1.05507e-06
1.05583e-06
1.05581e-06
1.0546e-06
1.05323e-06
1.05323e-06
1.05323e-06
1.05323e-06
1.05323e-06
1.05323e-06
1.05323e-06
1.05475e-06
1.05516e-06
1.05586e-06
1.05495e-06
1.05323e-06
1.05323e-06
1.05323e-06
1.05323e-06
1.05323e-06
1.05323e-06
1.05323e-06
1.05323e-06
1.05323e-06
1.05519e-06
1.05599e-06
1.05488e-06
1.05323e-06
1.05323e-06
1.05323e-06
1.05323e-06
1.05323e-06
1.05323e-06
1.05323e-06
1.05323e-06
1.05323e-06
1.05518e-06
1.056e-06
1.05493e-06
1.05323e-06
1.05323e-06
1.05323e-06
1.05323e-06
1.05323e-06
1.05323e-06
1.05323e-06
1.05323e-06
1.05323e-06
1.05518e-06
1.056e-06
1.0558e-06
1.05475e-06
1.05323e-06
1.05323e-06
1.05323e-06
1.05323e-06
1.05323e-06
1.05323e-06
1.05323e-06
1.05495e-06
1.0552e-06
1.05599e-06
1.05584e-06
1.05508e-06
1.05472e-06
1.05323e-06
1.05323e-06
1.05323e-06
1.05323e-06
1.05323e-06
1.05492e-06
1.05511e-06
1.05526e-06
1.05582e-06
1.05507e-06
1.05475e-06
1.05323e-06
1.05323e-06
1.05323e-06
1.05495e-06
1.05511e-06
1.05523e-06
1.05598e-06
1.05583e-06
1.05516e-06
1.05519e-06
1.05518e-06
1.05518e-06
1.0552e-06
1.05526e-06
1.05598e-06
1.05586e-06
1.05599e-06
1.056e-06
1.056e-06
1.05599e-06
1.04603e-06
1.04516e-06
1.04509e-06
1.04514e-06
1.04601e-06
1.04606e-06
1.04606e-06
1.04529e-06
1.04481e-06
1.04345e-06
1.04345e-06
1.04345e-06
1.04496e-06
1.04529e-06
1.04604e-06
1.04529e-06
1.04478e-06
1.04345e-06
1.04345e-06
1.04345e-06
1.04345e-06
1.04345e-06
1.04494e-06
1.04529e-06
1.04604e-06
1.04603e-06
1.04481e-06
1.04345e-06
1.04345e-06
1.04345e-06
1.04345e-06
1.04345e-06
1.04345e-06
1.04345e-06
1.04496e-06
1.04537e-06
1.04608e-06
1.04516e-06
1.04345e-06
1.04345e-06
1.04345e-06
1.04345e-06
1.04345e-06
1.04345e-06
1.04345e-06
1.04345e-06
1.04345e-06
1.04541e-06
1.04621e-06
1.04509e-06
1.04345e-06
1.04345e-06
1.04345e-06
1.04345e-06
1.04345e-06
1.04345e-06
1.04345e-06
1.04345e-06
1.04345e-06
1.04539e-06
1.04622e-06
1.04514e-06
1.04345e-06
1.04345e-06
1.04345e-06
1.04345e-06
1.04345e-06
1.04345e-06
1.04345e-06
1.04345e-06
1.04345e-06
1.0454e-06
1.04622e-06
1.04601e-06
1.04496e-06
1.04345e-06
1.04345e-06
1.04345e-06
1.04345e-06
1.04345e-06
1.04345e-06
1.04345e-06
1.04517e-06
1.04541e-06
1.04621e-06
1.04606e-06
1.04529e-06
1.04494e-06
1.04345e-06
1.04345e-06
1.04345e-06
1.04345e-06
1.04345e-06
1.04513e-06
1.04533e-06
1.04547e-06
1.04604e-06
1.04529e-06
1.04496e-06
1.04345e-06
1.04345e-06
1.04345e-06
1.04517e-06
1.04533e-06
1.04545e-06
1.04619e-06
1.04604e-06
1.04537e-06
1.04541e-06
1.04539e-06
1.0454e-06
1.04541e-06
1.04547e-06
1.04619e-06
1.04608e-06
1.04621e-06
1.04622e-06
1.04622e-06
1.04621e-06
1.03624e-06
1.03538e-06
1.03531e-06
1.03536e-06
1.03623e-06
1.03627e-06
1.03627e-06
1.0355e-06
1.03503e-06
1.03366e-06
1.03366e-06
1.03366e-06
1.03518e-06
1.03551e-06
1.03625e-06
1.0355e-06
1.03499e-06
1.03366e-06
1.03366e-06
1.03366e-06
1.03366e-06
1.03366e-06
1.03515e-06
1.0355e-06
1.03626e-06
1.03624e-06
1.03503e-06
1.03366e-06
1.03366e-06
1.03366e-06
1.03366e-06
1.03366e-06
1.03366e-06
1.03366e-06
1.03518e-06
1.03559e-06
1.0363e-06
1.03538e-06
1.03366e-06
1.03366e-06
1.03366e-06
1.03366e-06
1.03366e-06
1.03366e-06
1.03366e-06
1.03366e-06
1.03366e-06
1.03562e-06
1.03642e-06
1.03531e-06
1.03366e-06
1.03366e-06
1.03366e-06
1.03366e-06
1.03366e-06
1.03366e-06
1.03366e-06
1.03366e-06
1.03366e-06
1.03561e-06
1.03643e-06
1.03536e-06
1.03366e-06
1.03366e-06
1.03366e-06
1.03366e-06
1.03366e-06
1.03366e-06
1.03366e-06
1.03366e-06
1.03366e-06
1.03561e-06
1.03643e-06
1.03623e-06
1.03518e-06
1.03366e-06
1.03366e-06
1.03366e-06
1.03366e-06
1.03366e-06
1.03366e-06
1.03366e-06
1.03538e-06
1.03563e-06
1.03642e-06
1.03627e-06
1.03551e-06
1.03515e-06
1.03366e-06
1.03366e-06
1.03366e-06
1.03366e-06
1.03366e-06
1.03535e-06
1.03554e-06
1.03569e-06
1.03625e-06
1.0355e-06
1.03518e-06
1.03366e-06
1.03366e-06
1.03366e-06
1.03538e-06
1.03554e-06
1.03566e-06
1.03641e-06
1.03626e-06
1.03559e-06
1.03562e-06
1.03561e-06
1.03561e-06
1.03563e-06
1.03569e-06
1.03641e-06
1.0363e-06
1.03642e-06
1.03643e-06
1.03643e-06
1.03642e-06
1.02646e-06
1.02559e-06
1.02552e-06
1.02557e-06
1.02644e-06
1.02649e-06
1.02649e-06
1.02572e-06
1.02524e-06
1.02388e-06
1.02388e-06
1.02388e-06
1.02539e-06
1.02572e-06
1.02647e-06
1.02572e-06
1.02521e-06
1.02388e-06
1.02388e-06
1.02388e-06
1.02388e-06
1.02388e-06
1.02537e-06
1.02572e-06
1.02647e-06
1.02646e-06
1.02524e-06
1.02388e-06
1.02388e-06
1.02388e-06
1.02388e-06
1.02388e-06
1.02388e-06
1.02388e-06
1.02539e-06
1.0258e-06
1.02651e-06
1.02559e-06
1.02388e-06
1.02388e-06
1.02388e-06
1.02388e-06
1.02388e-06
1.02388e-06
1.02388e-06
1.02388e-06
1.02388e-06
1.02584e-06
1.02664e-06
1.02552e-06
1.02388e-06
1.02388e-06
1.02388e-06
1.02388e-06
1.02388e-06
1.02388e-06
1.02388e-06
1.02388e-06
1.02388e-06
1.02582e-06
1.02665e-06
1.02557e-06
1.02388e-06
1.02388e-06
1.02388e-06
1.02388e-06
1.02388e-06
1.02388e-06
1.02388e-06
1.02388e-06
1.02388e-06
1.02583e-06
1.02665e-06
1.02644e-06
1.02539e-06
1.02388e-06
1.02388e-06
1.02388e-06
1.02388e-06
1.02388e-06
1.02388e-06
1.02388e-06
1.0256e-06
1.02584e-06
1.02664e-06
1.02649e-06
1.02572e-06
1.02537e-06
1.02388e-06
1.02388e-06
1.02388e-06
1.02388e-06
1.02388e-06
1.02556e-06
1.02576e-06
1.0259e-06
1.02647e-06
1.02572e-06
1.02539e-06
1.02388e-06
1.02388e-06
1.02388e-06
1.0256e-06
1.02576e-06
1.02588e-06
1.02662e-06
1.02647e-06
1.0258e-06
1.02584e-06
1.02582e-06
1.02583e-06
1.02584e-06
1.0259e-06
1.02662e-06
1.02651e-06
1.02664e-06
1.02665e-06
1.02665e-06
1.02664e-06
1.01667e-06
1.01581e-06
1.01574e-06
1.01579e-06
1.01666e-06
1.0167e-06
1.0167e-06
1.01593e-06
1.01546e-06
1.01409e-06
1.01409e-06
1.01409e-06
1.01561e-06
1.01594e-06
1.01668e-06
1.01593e-06
1.01542e-06
1.01409e-06
1.01409e-06
1.01409e-06
1.01409e-06
1.01409e-06
1.01558e-06
1.01593e-06
1.01669e-06
1.01667e-06
1.01546e-06
1.01409e-06
1.01409e-06
1.01409e-06
1.01409e-06
1.01409e-06
1.01409e-06
1.01409e-06
1.01561e-06
1.01602e-06
1.01673e-06
1.01581e-06
1.01409e-06
1.01409e-06
1.01409e-06
1.01409e-06
1.01409e-06
1.01409e-06
1.01409e-06
1.01409e-06
1.01409e-06
1.01605e-06
1.01685e-06
1.01574e-06
1.01409e-06
1.01409e-06
1.01409e-06
1.01409e-06
1.01409e-06
1.01409e-06
1.01409e-06
1.01409e-06
1.01409e-06
1.01604e-06
1.01686e-06
1.01579e-06
1.01409e-06
1.01409e-06
1.01409e-06
1.01409e-06
1.01409e-06
1.01409e-06
1.01409e-06
1.01409e-06
1.01409e-06
1.01604e-06
1.01686e-06
1.01666e-06
1.01561e-06
1.01409e-06
1.01409e-06
1.01409e-06
1.01409e-06
1.01409e-06
1.01409e-06
1.01409e-06
1.01581e-06
1.01606e-06
1.01685e-06
1.0167e-06
1.01594e-06
1.01558e-06
1.01409e-06
1.01409e-06
1.01409e-06
1.01409e-06
1.01409e-06
1.01578e-06
1.01597e-06
1.01612e-06
1.01668e-06
1.01593e-06
1.01561e-06
1.01409e-06
1.01409e-06
1.01409e-06
1.01581e-06
1.01597e-06
1.01609e-06
1.01684e-06
1.01669e-06
1.01602e-06
1.01605e-06
1.01604e-06
1.01604e-06
1.01606e-06
1.01612e-06
1.01684e-06
1.01673e-06
1.01685e-06
1.01686e-06
1.01686e-06
1.01685e-06
1.00689e-06
1.00602e-06
1.00595e-06
1.006e-06
1.00687e-06
1.00692e-06
1.00692e-06
1.00615e-06
1.00567e-06
1.00431e-06
1.00431e-06
1.00431e-06
1.00582e-06
1.00615e-06
1.0069e-06
1.00615e-06
1.00564e-06
1.00431e-06
1.00431e-06
1.00431e-06
1.00431e-06
1.00431e-06
1.0058e-06
1.00615e-06
1.0069e-06
1.00689e-06
1.00567e-06
1.00431e-06
1.00431e-06
1.00431e-06
1.00431e-06
1.00431e-06
1.00431e-06
1.00431e-06
1.00582e-06
1.00623e-06
1.00694e-06
1.00602e-06
1.00431e-06
1.00431e-06
1.00431e-06
1.00431e-06
1.00431e-06
1.00431e-06
1.00431e-06
1.00431e-06
1.00431e-06
1.00627e-06
1.00707e-06
1.00595e-06
1.00431e-06
1.00431e-06
1.00431e-06
1.00431e-06
1.00431e-06
1.00431e-06
1.00431e-06
1.00431e-06
1.00431e-06
1.00625e-06
1.00708e-06
1.006e-06
1.00431e-06
1.00431e-06
1.00431e-06
1.00431e-06
1.00431e-06
1.00431e-06
1.00431e-06
1.00431e-06
1.00431e-06
1.00626e-06
1.00708e-06
1.00687e-06
1.00582e-06
1.00431e-06
1.00431e-06
1.00431e-06
1.00431e-06
1.00431e-06
1.00431e-06
1.00431e-06
1.00603e-06
1.00627e-06
1.00707e-06
1.00692e-06
1.00615e-06
1.0058e-06
1.00431e-06
1.00431e-06
1.00431e-06
1.00431e-06
1.00431e-06
1.00599e-06
1.00619e-06
1.00633e-06
1.0069e-06
1.00615e-06
1.00582e-06
1.00431e-06
1.00431e-06
1.00431e-06
1.00603e-06
1.00619e-06
1.00631e-06
1.00705e-06
1.0069e-06
1.00623e-06
1.00627e-06
1.00625e-06
1.00626e-06
1.00627e-06
1.00633e-06
1.00705e-06
1.00694e-06
1.00707e-06
1.00708e-06
1.00708e-06
1.00707e-06
9.97102e-07
9.96237e-07
9.96169e-07
9.96218e-07
9.97086e-07
9.97135e-07
9.97132e-07
9.9636e-07
9.95888e-07
9.94522e-07
9.94522e-07
9.94522e-07
9.96035e-07
9.96367e-07
9.97112e-07
9.9636e-07
9.95853e-07
9.94522e-07
9.94523e-07
9.94522e-07
9.94523e-07
9.94522e-07
9.96012e-07
9.96365e-07
9.97116e-07
9.97102e-07
9.95888e-07
9.94522e-07
9.94522e-07
9.94522e-07
9.94522e-07
9.94522e-07
9.94522e-07
9.94522e-07
9.96036e-07
9.96449e-07
9.97155e-07
9.96237e-07
9.94522e-07
9.94523e-07
9.94522e-07
9.94523e-07
9.94522e-07
9.94523e-07
9.94522e-07
9.94523e-07
9.94522e-07
9.96482e-07
9.97285e-07
9.96169e-07
9.94522e-07
9.94522e-07
9.94522e-07
9.94522e-07
9.94522e-07
9.94522e-07
9.94522e-07
9.94522e-07
9.94522e-07
9.96466e-07
9.9729e-07
9.96218e-07
9.94522e-07
9.94523e-07
9.94522e-07
9.94523e-07
9.94522e-07
9.94523e-07
9.94522e-07
9.94523e-07
9.94522e-07
9.96473e-07
9.97292e-07
9.97086e-07
9.96035e-07
9.94522e-07
9.94522e-07
9.94522e-07
9.94522e-07
9.94522e-07
9.94522e-07
9.94522e-07
9.96242e-07
9.96488e-07
9.97284e-07
9.97135e-07
9.96367e-07
9.96012e-07
9.94522e-07
9.94523e-07
9.94522e-07
9.94523e-07
9.94522e-07
9.96208e-07
9.96404e-07
9.96546e-07
9.97112e-07
9.96365e-07
9.96036e-07
9.94522e-07
9.94522e-07
9.94522e-07
9.96242e-07
9.96404e-07
9.96521e-07
9.97269e-07
9.97116e-07
9.96449e-07
9.96482e-07
9.96466e-07
9.96473e-07
9.96488e-07
9.96546e-07
9.97269e-07
9.97155e-07
9.97285e-07
9.9729e-07
9.97292e-07
9.97284e-07
9.87317e-07
9.86453e-07
9.86385e-07
9.86433e-07
9.87302e-07
9.8735e-07
9.87347e-07
9.86576e-07
9.86103e-07
9.84737e-07
9.84737e-07
9.84737e-07
9.86251e-07
9.86583e-07
9.87327e-07
9.86576e-07
9.86068e-07
9.84737e-07
9.84738e-07
9.84737e-07
9.84738e-07
9.84737e-07
9.86227e-07
9.8658e-07
9.87331e-07
9.87317e-07
9.86103e-07
9.84737e-07
9.84738e-07
9.84737e-07
9.84737e-07
9.84737e-07
9.84738e-07
9.84737e-07
9.86252e-07
9.86664e-07
9.8737e-07
9.86453e-07
9.84737e-07
9.84738e-07
9.84737e-07
9.84738e-07
9.84737e-07
9.84738e-07
9.84737e-07
9.84738e-07
9.84737e-07
9.86698e-07
9.875e-07
9.86385e-07
9.84737e-07
9.84737e-07
9.84737e-07
9.84737e-07
9.84737e-07
9.84737e-07
9.84737e-07
9.84737e-07
9.84737e-07
9.86682e-07
9.87506e-07
9.86433e-07
9.84737e-07
9.84738e-07
9.84737e-07
9.84738e-07
9.84737e-07
9.84738e-07
9.84737e-07
9.84738e-07
9.84737e-07
9.86688e-07
9.87507e-07
9.87302e-07
9.86251e-07
9.84737e-07
9.84738e-07
9.84737e-07
9.84737e-07
9.84737e-07
9.84738e-07
9.84737e-07
9.86457e-07
9.86703e-07
9.875e-07
9.8735e-07
9.86583e-07
9.86227e-07
9.84737e-07
9.84738e-07
9.84737e-07
9.84738e-07
9.84737e-07
9.86423e-07
9.86619e-07
9.86761e-07
9.87327e-07
9.8658e-07
9.86252e-07
9.84737e-07
9.84737e-07
9.84737e-07
9.86457e-07
9.86619e-07
9.86736e-07
9.87485e-07
9.87331e-07
9.86664e-07
9.86698e-07
9.86682e-07
9.86688e-07
9.86703e-07
9.86761e-07
9.87485e-07
9.8737e-07
9.875e-07
9.87506e-07
9.87507e-07
9.875e-07
9.77532e-07
9.76668e-07
9.766e-07
9.76649e-07
9.77517e-07
9.77566e-07
9.77562e-07
9.76791e-07
9.76318e-07
9.74952e-07
9.74952e-07
9.74952e-07
9.76466e-07
9.76798e-07
9.77543e-07
9.76791e-07
9.76283e-07
9.74952e-07
9.74953e-07
9.74953e-07
9.74953e-07
9.74952e-07
9.76442e-07
9.76795e-07
9.77546e-07
9.77532e-07
9.76318e-07
9.74952e-07
9.74953e-07
9.74952e-07
9.74953e-07
9.74952e-07
9.74953e-07
9.74952e-07
9.76467e-07
9.7688e-07
9.77586e-07
9.76668e-07
9.74952e-07
9.74953e-07
9.74952e-07
9.74953e-07
9.74952e-07
9.74953e-07
9.74952e-07
9.74953e-07
9.74952e-07
9.76913e-07
9.77715e-07
9.766e-07
9.74952e-07
9.74953e-07
9.74953e-07
9.74952e-07
9.74953e-07
9.74952e-07
9.74953e-07
9.74953e-07
9.74953e-07
9.76897e-07
9.77721e-07
9.76649e-07
9.74952e-07
9.74953e-07
9.74952e-07
9.74953e-07
9.74952e-07
9.74953e-07
9.74952e-07
9.74953e-07
9.74952e-07
9.76904e-07
9.77722e-07
9.77517e-07
9.76466e-07
9.74952e-07
9.74953e-07
9.74952e-07
9.74953e-07
9.74952e-07
9.74953e-07
9.74952e-07
9.76672e-07
9.76918e-07
9.77715e-07
9.77565e-07
9.76798e-07
9.76442e-07
9.74952e-07
9.74953e-07
9.74953e-07
9.74953e-07
9.74952e-07
9.76638e-07
9.76834e-07
9.76976e-07
9.77543e-07
9.76795e-07
9.76467e-07
9.74952e-07
9.74952e-07
9.74952e-07
9.76672e-07
9.76834e-07
9.76952e-07
9.777e-07
9.77546e-07
9.7688e-07
9.76913e-07
9.76897e-07
9.76904e-07
9.76918e-07
9.76976e-07
9.777e-07
9.77586e-07
9.77715e-07
9.77721e-07
9.77722e-07
9.77715e-07
9.67747e-07
9.66883e-07
9.66815e-07
9.66864e-07
9.67732e-07
9.67781e-07
9.67778e-07
9.67006e-07
9.66533e-07
9.65167e-07
9.65168e-07
9.65167e-07
9.66681e-07
9.67013e-07
9.67758e-07
9.67006e-07
9.66499e-07
9.65167e-07
9.65169e-07
9.65168e-07
9.65169e-07
9.65167e-07
9.66658e-07
9.67011e-07
9.67761e-07
9.67747e-07
9.66533e-07
9.65167e-07
9.65168e-07
9.65167e-07
9.65168e-07
9.65167e-07
9.65168e-07
9.65167e-07
9.66682e-07
9.67095e-07
9.67801e-07
9.66883e-07
9.65167e-07
9.65169e-07
9.65167e-07
9.65168e-07
9.65168e-07
9.65168e-07
9.65168e-07
9.65169e-07
9.65167e-07
9.67128e-07
9.6793e-07
9.66815e-07
9.65168e-07
9.65168e-07
9.65168e-07
9.65168e-07
9.65168e-07
9.65168e-07
9.65168e-07
9.65168e-07
9.65168e-07
9.67112e-07
9.67936e-07
9.66864e-07
9.65167e-07
9.65169e-07
9.65167e-07