/*--------------------------------*- C++ -*----------------------------------*\
| =========                 |                                                 |
| \\      /  F ield         | OpenFOAM: The Open Source CFD Toolbox           |
|  \\    /   O peration     | Version:  v2012                                 |
|   \\  /    A nd           | Website:  www.openfoam.com                      |
|    \\/     M anipulation  |                                                 |
\*---------------------------------------------------------------------------*/
FoamFile
{
    version     2.0;
    format      ascii;
    class       volScalarField;
    location    "74";
    object      p;
}
// * * * * * * * * * * * * * * * * * * * * * * * * * * * * * * * * * * * * * //

dimensions      [0 2 -2 0 0 0 0];


internalField   nonuniform List<scalar> 
292667
(
1.0401e-06
1.03121e-06
1.03056e-06
1.03061e-06
1.03149e-06
1.04094e-06
1.03142e-06
1.02918e-06
1.02786e-06
1.02731e-06
1.02738e-06
1.02809e-06
1.02961e-06
1.03204e-06
1.03142e-06
1.02853e-06
1.0267e-06
1.02569e-06
1.02527e-06
1.02532e-06
1.02587e-06
1.02705e-06
1.02909e-06
1.0322e-06
1.0401e-06
1.02918e-06
1.0267e-06
1.02522e-06
1.02439e-06
1.02403e-06
1.02408e-06
1.02454e-06
1.02551e-06
1.02719e-06
1.02995e-06
1.03954e-06
1.03121e-06
1.02786e-06
1.02569e-06
1.02439e-06
1.02365e-06
1.02333e-06
1.02337e-06
1.02379e-06
1.02465e-06
1.02613e-06
1.02857e-06
1.0345e-06
1.03056e-06
1.02731e-06
1.02527e-06
1.02403e-06
1.02333e-06
1.02302e-06
1.02307e-06
1.02346e-06
1.02428e-06
1.02568e-06
1.028e-06
1.03301e-06
1.03061e-06
1.02738e-06
1.02532e-06
1.02408e-06
1.02337e-06
1.02307e-06
1.02311e-06
1.02351e-06
1.02433e-06
1.02575e-06
1.02808e-06
1.0333e-06
1.03149e-06
1.02809e-06
1.02587e-06
1.02454e-06
1.02379e-06
1.02346e-06
1.02351e-06
1.02393e-06
1.02481e-06
1.02633e-06
1.02884e-06
1.03478e-06
1.04094e-06
1.02961e-06
1.02705e-06
1.02551e-06
1.02465e-06
1.02428e-06
1.02433e-06
1.02481e-06
1.02582e-06
1.02758e-06
1.03043e-06
1.03938e-06
1.03204e-06
1.02909e-06
1.02719e-06
1.02613e-06
1.02568e-06
1.02575e-06
1.02633e-06
1.02758e-06
1.02974e-06
1.03546e-06
1.0322e-06
1.02995e-06
1.02857e-06
1.028e-06
1.02808e-06
1.02884e-06
1.03043e-06
1.03546e-06
1.03954e-06
1.0345e-06
1.03301e-06
1.0333e-06
1.03478e-06
1.03938e-06
1.01645e-06
1.01583e-06
1.0158e-06
1.01585e-06
1.01649e-06
1.01635e-06
1.01648e-06
1.016e-06
1.01567e-06
1.01456e-06
1.01454e-06
1.01456e-06
1.01583e-06
1.01606e-06
1.01653e-06
1.016e-06
1.01565e-06
1.0146e-06
1.01456e-06
1.0146e-06
1.01456e-06
1.0146e-06
1.01582e-06
1.01605e-06
1.01652e-06
1.01645e-06
1.01567e-06
1.0146e-06
1.01454e-06
1.01456e-06
1.01454e-06
1.01456e-06
1.01454e-06
1.0146e-06
1.01582e-06
1.01609e-06
1.01654e-06
1.01583e-06
1.01456e-06
1.01456e-06
1.01456e-06
1.01452e-06
1.01453e-06
1.01452e-06
1.01456e-06
1.01456e-06
1.01456e-06
1.01624e-06
1.01672e-06
1.0158e-06
1.01454e-06
1.0146e-06
1.01454e-06
1.01453e-06
1.01452e-06
1.01453e-06
1.01454e-06
1.0146e-06
1.01455e-06
1.01627e-06
1.01666e-06
1.01585e-06
1.01456e-06
1.01456e-06
1.01456e-06
1.01452e-06
1.01453e-06
1.01452e-06
1.01456e-06
1.01456e-06
1.01456e-06
1.01626e-06
1.01668e-06
1.01649e-06
1.01583e-06
1.0146e-06
1.01454e-06
1.01456e-06
1.01454e-06
1.01456e-06
1.01454e-06
1.0146e-06
1.01603e-06
1.01615e-06
1.01667e-06
1.01635e-06
1.01606e-06
1.01582e-06
1.0146e-06
1.01456e-06
1.0146e-06
1.01456e-06
1.0146e-06
1.01599e-06
1.01612e-06
1.01611e-06
1.01653e-06
1.01605e-06
1.01582e-06
1.01456e-06
1.01455e-06
1.01456e-06
1.01603e-06
1.01612e-06
1.01615e-06
1.01663e-06
1.01652e-06
1.01609e-06
1.01624e-06
1.01627e-06
1.01626e-06
1.01615e-06
1.01611e-06
1.01663e-06
1.01654e-06
1.01672e-06
1.01666e-06
1.01668e-06
1.01667e-06
1.00781e-06
1.00713e-06
1.00707e-06
1.00712e-06
1.00783e-06
1.00784e-06
1.00782e-06
1.00723e-06
1.00684e-06
1.00578e-06
1.00578e-06
1.00578e-06
1.007e-06
1.00727e-06
1.00783e-06
1.00723e-06
1.00682e-06
1.00582e-06
1.00582e-06
1.00585e-06
1.00582e-06
1.00582e-06
1.007e-06
1.00727e-06
1.00784e-06
1.00781e-06
1.00684e-06
1.00582e-06
1.00584e-06
1.00588e-06
1.00587e-06
1.00588e-06
1.00584e-06
1.00582e-06
1.00701e-06
1.00733e-06
1.00785e-06
1.00713e-06
1.00578e-06
1.00582e-06
1.00588e-06
1.00588e-06
1.0059e-06
1.00588e-06
1.00588e-06
1.00582e-06
1.00578e-06
1.0074e-06
1.00801e-06
1.00707e-06
1.00578e-06
1.00585e-06
1.00587e-06
1.0059e-06
1.00591e-06
1.0059e-06
1.00587e-06
1.00585e-06
1.00578e-06
1.00741e-06
1.00803e-06
1.00712e-06
1.00578e-06
1.00582e-06
1.00588e-06
1.00588e-06
1.0059e-06
1.00588e-06
1.00588e-06
1.00582e-06
1.00578e-06
1.00741e-06
1.00803e-06
1.00783e-06
1.007e-06
1.00582e-06
1.00584e-06
1.00588e-06
1.00587e-06
1.00588e-06
1.00584e-06
1.00582e-06
1.00723e-06
1.00738e-06
1.00799e-06
1.00784e-06
1.00727e-06
1.007e-06
1.00582e-06
1.00582e-06
1.00585e-06
1.00582e-06
1.00582e-06
1.00721e-06
1.00732e-06
1.00741e-06
1.00783e-06
1.00727e-06
1.00701e-06
1.00578e-06
1.00578e-06
1.00578e-06
1.00723e-06
1.00732e-06
1.00739e-06
1.00797e-06
1.00784e-06
1.00733e-06
1.0074e-06
1.00741e-06
1.00741e-06
1.00738e-06
1.00741e-06
1.00797e-06
1.00785e-06
1.00801e-06
1.00803e-06
1.00803e-06
1.00799e-06
9.99187e-07
9.98497e-07
9.98438e-07
9.98485e-07
9.99205e-07
9.99219e-07
9.99198e-07
9.98594e-07
9.98192e-07
9.97108e-07
9.9711e-07
9.97108e-07
9.98344e-07
9.98619e-07
9.99213e-07
9.98594e-07
9.98161e-07
9.97129e-07
9.97143e-07
9.97158e-07
9.97143e-07
9.97129e-07
9.9833e-07
9.98618e-07
9.99216e-07
9.99187e-07
9.98192e-07
9.97129e-07
9.97153e-07
9.97182e-07
9.97182e-07
9.97182e-07
9.97153e-07
9.97129e-07
9.98349e-07
9.98697e-07
9.99232e-07
9.98497e-07
9.97108e-07
9.97144e-07
9.97182e-07
9.97196e-07
9.97211e-07
9.97196e-07
9.97182e-07
9.97144e-07
9.97108e-07
9.98763e-07
9.99385e-07
9.98438e-07
9.9711e-07
9.97158e-07
9.97183e-07
9.97211e-07
9.97214e-07
9.97211e-07
9.97183e-07
9.97158e-07
9.9711e-07
9.9876e-07
9.99406e-07
9.98485e-07
9.97108e-07
9.97143e-07
9.97182e-07
9.97196e-07
9.97211e-07
9.97196e-07
9.97182e-07
9.97144e-07
9.97108e-07
9.9876e-07
9.99406e-07
9.99205e-07
9.98344e-07
9.97129e-07
9.97153e-07
9.97182e-07
9.97183e-07
9.97182e-07
9.97153e-07
9.97129e-07
9.98565e-07
9.98748e-07
9.99373e-07
9.99219e-07
9.98619e-07
9.9833e-07
9.97129e-07
9.97144e-07
9.97158e-07
9.97144e-07
9.97129e-07
9.9854e-07
9.98675e-07
9.98783e-07
9.99213e-07
9.98618e-07
9.98349e-07
9.97108e-07
9.9711e-07
9.97108e-07
9.98565e-07
9.98676e-07
9.9876e-07
9.99351e-07
9.99216e-07
9.98697e-07
9.98762e-07
9.9876e-07
9.9876e-07
9.98748e-07
9.98783e-07
9.99351e-07
9.99232e-07
9.99385e-07
9.99406e-07
9.99406e-07
9.99373e-07
9.90566e-07
9.89872e-07
9.89812e-07
9.89859e-07
9.90583e-07
9.90599e-07
9.90578e-07
9.89969e-07
9.8956e-07
9.88467e-07
9.88468e-07
9.88467e-07
9.8971e-07
9.89991e-07
9.90593e-07
9.89969e-07
9.89525e-07
9.88478e-07
9.88488e-07
9.88495e-07
9.88488e-07
9.88478e-07
9.89691e-07
9.89989e-07
9.90596e-07
9.90566e-07
9.8956e-07
9.88478e-07
9.88494e-07
9.88511e-07
9.88513e-07
9.88511e-07
9.88494e-07
9.88478e-07
9.89714e-07
9.90073e-07
9.90611e-07
9.89872e-07
9.88467e-07
9.88489e-07
9.88511e-07
9.88523e-07
9.88532e-07
9.88523e-07
9.88511e-07
9.88489e-07
9.88467e-07
9.90136e-07
9.90765e-07
9.89812e-07
9.88469e-07
9.88495e-07
9.88513e-07
9.88532e-07
9.88534e-07
9.88532e-07
9.88513e-07
9.88495e-07
9.88469e-07
9.90131e-07
9.90785e-07
9.89859e-07
9.88467e-07
9.88488e-07
9.88511e-07
9.88523e-07
9.88532e-07
9.88523e-07
9.88511e-07
9.88488e-07
9.88467e-07
9.90132e-07
9.90785e-07
9.90583e-07
9.8971e-07
9.88478e-07
9.88494e-07
9.88511e-07
9.88513e-07
9.88511e-07
9.88494e-07
9.88478e-07
9.89931e-07
9.90124e-07
9.90752e-07
9.90599e-07
9.89991e-07
9.89691e-07
9.88478e-07
9.88489e-07
9.88495e-07
9.88489e-07
9.88478e-07
9.89901e-07
9.90046e-07
9.90162e-07
9.90593e-07
9.89989e-07
9.89714e-07
9.88467e-07
9.88468e-07
9.88467e-07
9.89931e-07
9.90046e-07
9.90138e-07
9.90732e-07
9.90596e-07
9.90073e-07
9.90136e-07
9.90131e-07
9.90132e-07
9.90124e-07
9.90162e-07
9.90732e-07
9.90611e-07
9.90765e-07
9.90784e-07
9.90784e-07
9.90752e-07
9.81943e-07
9.81248e-07
9.81188e-07
9.81235e-07
9.81961e-07
9.81976e-07
9.81956e-07
9.81345e-07
9.80932e-07
9.79835e-07
9.79837e-07
9.79835e-07
9.81083e-07
9.81366e-07
9.81971e-07
9.81345e-07
9.80896e-07
9.79841e-07
9.79848e-07
9.79851e-07
9.79848e-07
9.79841e-07
9.81062e-07
9.81364e-07
9.81974e-07
9.81943e-07
9.80932e-07
9.79841e-07
9.79851e-07
9.7986e-07
9.79862e-07
9.7986e-07
9.79851e-07
9.79841e-07
9.81086e-07
9.81449e-07
9.81989e-07
9.81248e-07
9.79836e-07
9.79848e-07
9.7986e-07
9.79869e-07
9.79873e-07
9.79869e-07
9.7986e-07
9.79848e-07
9.79835e-07
9.81511e-07
9.82142e-07
9.81188e-07
9.79837e-07
9.79851e-07
9.79862e-07
9.79873e-07
9.79875e-07
9.79873e-07
9.79862e-07
9.79851e-07
9.79837e-07
9.81505e-07
9.82162e-07
9.81235e-07
9.79835e-07
9.79848e-07
9.7986e-07
9.79869e-07
9.79873e-07
9.79869e-07
9.7986e-07
9.79848e-07
9.79835e-07
9.81506e-07
9.82162e-07
9.81961e-07
9.81083e-07
9.79841e-07
9.79851e-07
9.7986e-07
9.79862e-07
9.7986e-07
9.79851e-07
9.79841e-07
9.81303e-07
9.815e-07
9.8213e-07
9.81976e-07
9.81366e-07
9.81062e-07
9.79841e-07
9.79848e-07
9.79851e-07
9.79848e-07
9.79841e-07
9.81271e-07
9.81421e-07
9.81539e-07
9.81971e-07
9.81364e-07
9.81086e-07
9.79836e-07
9.79837e-07
9.79836e-07
9.81303e-07
9.81421e-07
9.81515e-07
9.8211e-07
9.81974e-07
9.81449e-07
9.81511e-07
9.81505e-07
9.81506e-07
9.815e-07
9.81539e-07
9.8211e-07
9.81989e-07
9.82142e-07
9.82161e-07
9.82161e-07
9.8213e-07
9.7332e-07
9.72624e-07
9.72563e-07
9.72611e-07
9.73336e-07
9.73353e-07
9.73332e-07
9.72721e-07
9.72307e-07
9.71208e-07
9.71209e-07
9.71208e-07
9.72458e-07
9.72742e-07
9.73348e-07
9.72721e-07
9.7227e-07
9.7121e-07
9.71215e-07
9.71216e-07
9.71215e-07
9.7121e-07
9.72435e-07
9.72739e-07
9.7335e-07
9.7332e-07
9.72307e-07
9.71211e-07
9.71216e-07
9.71221e-07
9.71222e-07
9.71221e-07
9.71216e-07
9.71211e-07
9.7246e-07
9.72826e-07
9.73365e-07
9.72624e-07
9.71208e-07
9.71215e-07
9.71221e-07
9.71227e-07
9.71229e-07
9.71227e-07
9.71221e-07
9.71215e-07
9.71208e-07
9.72887e-07
9.73518e-07
9.72563e-07
9.71209e-07
9.71216e-07
9.71222e-07
9.71229e-07
9.7123e-07
9.71229e-07
9.71222e-07
9.71216e-07
9.71209e-07
9.7288e-07
9.73537e-07
9.72611e-07
9.71208e-07
9.71215e-07
9.71221e-07
9.71227e-07
9.71229e-07
9.71227e-07
9.71221e-07
9.71215e-07
9.71208e-07
9.72881e-07
9.73537e-07
9.73337e-07
9.72458e-07
9.7121e-07
9.71216e-07
9.71221e-07
9.71223e-07
9.71221e-07
9.71216e-07
9.7121e-07
9.72677e-07
9.72876e-07
9.73506e-07
9.73353e-07
9.72742e-07
9.72435e-07
9.71211e-07
9.71215e-07
9.71216e-07
9.71215e-07
9.71211e-07
9.72645e-07
9.72796e-07
9.72916e-07
9.73348e-07
9.72739e-07
9.7246e-07
9.71208e-07
9.71209e-07
9.71208e-07
9.72677e-07
9.72796e-07
9.72891e-07
9.73486e-07
9.7335e-07
9.72826e-07
9.72887e-07
9.7288e-07
9.72881e-07
9.72876e-07
9.72916e-07
9.73486e-07
9.73365e-07
9.73518e-07
9.73537e-07
9.73537e-07
9.73506e-07
9.64696e-07
9.63999e-07
9.63938e-07
9.63986e-07
9.64712e-07
9.64729e-07
9.64708e-07
9.64096e-07
9.63681e-07
9.62581e-07
9.62582e-07
9.62581e-07
9.63832e-07
9.64117e-07
9.64723e-07
9.64096e-07
9.63644e-07
9.62583e-07
9.62586e-07
9.62586e-07
9.62586e-07
9.62583e-07
9.6381e-07
9.64115e-07
9.64726e-07
9.64696e-07
9.63682e-07
9.62583e-07
9.62587e-07
9.62589e-07
9.6259e-07
9.62589e-07
9.62587e-07
9.62583e-07
9.63835e-07
9.64201e-07
9.64741e-07
9.63999e-07
9.62581e-07
9.62586e-07
9.62589e-07
9.62592e-07
9.62593e-07
9.62592e-07
9.62589e-07
9.62586e-07
9.62581e-07
9.64262e-07
9.64894e-07
9.63938e-07
9.62582e-07
9.62586e-07
9.6259e-07
9.62593e-07
9.62594e-07
9.62593e-07
9.6259e-07
9.62586e-07
9.62582e-07
9.64255e-07
9.64913e-07
9.63986e-07
9.62581e-07
9.62586e-07
9.62589e-07
9.62592e-07
9.62593e-07
9.62592e-07
9.62589e-07
9.62586e-07
9.62581e-07
9.64257e-07
9.64913e-07
9.64712e-07
9.63832e-07
9.62583e-07
9.62587e-07
9.62589e-07
9.6259e-07
9.62589e-07
9.62587e-07
9.62583e-07
9.64052e-07
9.64251e-07
9.64881e-07
9.64729e-07
9.64117e-07
9.6381e-07
9.62583e-07
9.62586e-07
9.62586e-07
9.62586e-07
9.62583e-07
9.64019e-07
9.64172e-07
9.64292e-07
9.64723e-07
9.64115e-07
9.63835e-07
9.62581e-07
9.62582e-07
9.62581e-07
9.64052e-07
9.64172e-07
9.64267e-07
9.64862e-07
9.64726e-07
9.64201e-07
9.64262e-07
9.64255e-07
9.64257e-07
9.64252e-07
9.64292e-07
9.64862e-07
9.64741e-07
9.64894e-07
9.64913e-07
9.64913e-07
9.64881e-07
9.56071e-07
9.55374e-07
9.55313e-07
9.55361e-07
9.56088e-07
9.56104e-07
9.56084e-07
9.55471e-07
9.55057e-07
9.53956e-07
9.53956e-07
9.53956e-07
9.55208e-07
9.55492e-07
9.56099e-07
9.55471e-07
9.55019e-07
9.53957e-07
9.53959e-07
9.53959e-07
9.53959e-07
9.53957e-07
9.55185e-07
9.5549e-07
9.56102e-07
9.56071e-07
9.55057e-07
9.53957e-07
9.53959e-07
9.5396e-07
9.53961e-07
9.5396e-07
9.53959e-07
9.53957e-07
9.5521e-07
9.55576e-07
9.56116e-07
9.55374e-07
9.53956e-07
9.53959e-07
9.5396e-07
9.53962e-07
9.53963e-07
9.53962e-07
9.5396e-07
9.53959e-07
9.53956e-07
9.55638e-07
9.56269e-07
9.55313e-07
9.53956e-07
9.53959e-07
9.53961e-07
9.53963e-07
9.53963e-07
9.53963e-07
9.53961e-07
9.53959e-07
9.53956e-07
9.5563e-07
9.56288e-07
9.55361e-07
9.53956e-07
9.53959e-07
9.5396e-07
9.53962e-07
9.53963e-07
9.53962e-07
9.5396e-07
9.53959e-07
9.53956e-07
9.55632e-07
9.56288e-07
9.56088e-07
9.55208e-07
9.53957e-07
9.53959e-07
9.5396e-07
9.53961e-07
9.5396e-07
9.53959e-07
9.53957e-07
9.55427e-07
9.55627e-07
9.56257e-07
9.56104e-07
9.55492e-07
9.55185e-07
9.53957e-07
9.53959e-07
9.53959e-07
9.53959e-07
9.53957e-07
9.55394e-07
9.55547e-07
9.55667e-07
9.56099e-07
9.5549e-07
9.5521e-07
9.53956e-07
9.53956e-07
9.53956e-07
9.55427e-07
9.55547e-07
9.55643e-07
9.56238e-07
9.56102e-07
9.55576e-07
9.55638e-07
9.5563e-07
9.55632e-07
9.55627e-07
9.55667e-07
9.56238e-07
9.56116e-07
9.56269e-07
9.56288e-07
9.56288e-07
9.56257e-07
9.47446e-07
9.46749e-07
9.46688e-07
9.46736e-07
9.47463e-07
9.4748e-07
9.47459e-07
9.46847e-07
9.46432e-07
9.45331e-07
9.45331e-07
9.45331e-07
9.46583e-07
9.46868e-07
9.47474e-07
9.46847e-07
9.46394e-07
9.45331e-07
9.45333e-07
9.45333e-07
9.45333e-07
9.45331e-07
9.4656e-07
9.46865e-07
9.47477e-07
9.47446e-07
9.46432e-07
9.45331e-07
9.45333e-07
9.45333e-07
9.45334e-07
9.45333e-07
9.45333e-07
9.45331e-07
9.46585e-07
9.46952e-07
9.47492e-07
9.46749e-07
9.45331e-07
9.45333e-07
9.45333e-07
9.45335e-07
9.45335e-07
9.45335e-07
9.45333e-07
9.45333e-07
9.45331e-07
9.47013e-07
9.47645e-07
9.46688e-07
9.45331e-07
9.45333e-07
9.45334e-07
9.45335e-07
9.45335e-07
9.45335e-07
9.45334e-07
9.45333e-07
9.45331e-07
9.47005e-07
9.47664e-07
9.46736e-07
9.45331e-07
9.45333e-07
9.45333e-07
9.45335e-07
9.45335e-07
9.45335e-07
9.45333e-07
9.45333e-07
9.45331e-07
9.47007e-07
9.47664e-07
9.47463e-07
9.46583e-07
9.45331e-07
9.45333e-07
9.45333e-07
9.45334e-07
9.45333e-07
9.45333e-07
9.45331e-07
9.46802e-07
9.47002e-07
9.47632e-07
9.4748e-07
9.46868e-07
9.4656e-07
9.45331e-07
9.45333e-07
9.45333e-07
9.45333e-07
9.45331e-07
9.46769e-07
9.46922e-07
9.47042e-07
9.47474e-07
9.46865e-07
9.46585e-07
9.45331e-07
9.45331e-07
9.45331e-07
9.46802e-07
9.46922e-07
9.47018e-07
9.47613e-07
9.47477e-07
9.46952e-07
9.47012e-07
9.47005e-07
9.47007e-07
9.47002e-07
9.47042e-07
9.47613e-07
9.47492e-07
9.47645e-07
9.47664e-07
9.47664e-07
9.47632e-07
9.38822e-07
9.38125e-07
9.38064e-07
9.38111e-07
9.38838e-07
9.38855e-07
9.38835e-07
9.38222e-07
9.37807e-07
9.36706e-07
9.36706e-07
9.36706e-07
9.37958e-07
9.38243e-07
9.3885e-07
9.38222e-07
9.3777e-07
9.36706e-07
9.36708e-07
9.36707e-07
9.36708e-07
9.36706e-07
9.37935e-07
9.3824e-07
9.38853e-07
9.38822e-07
9.37807e-07
9.36706e-07
9.36707e-07
9.36707e-07
9.36708e-07
9.36707e-07
9.36707e-07
9.36706e-07
9.37961e-07
9.38327e-07
9.38867e-07
9.38125e-07
9.36706e-07
9.36708e-07
9.36707e-07
9.36709e-07
9.36708e-07
9.36709e-07
9.36707e-07
9.36708e-07
9.36706e-07
9.38388e-07
9.3902e-07
9.38064e-07
9.36706e-07
9.36707e-07
9.36708e-07
9.36708e-07
9.36708e-07
9.36708e-07
9.36708e-07
9.36707e-07
9.36706e-07
9.3838e-07
9.39039e-07
9.38111e-07
9.36706e-07
9.36708e-07
9.36707e-07
9.36709e-07
9.36708e-07
9.36709e-07
9.36707e-07
9.36708e-07
9.36706e-07
9.38382e-07
9.39039e-07
9.38838e-07
9.37958e-07
9.36706e-07
9.36707e-07
9.36707e-07
9.36708e-07
9.36707e-07
9.36707e-07
9.36706e-07
9.38177e-07
9.38377e-07
9.39007e-07
9.38855e-07
9.38243e-07
9.37935e-07
9.36706e-07
9.36708e-07
9.36707e-07
9.36708e-07
9.36706e-07
9.38144e-07
9.38297e-07
9.38418e-07
9.3885e-07
9.3824e-07
9.37961e-07
9.36706e-07
9.36706e-07
9.36706e-07
9.38177e-07
9.38297e-07
9.38393e-07
9.38988e-07
9.38853e-07
9.38327e-07
9.38388e-07
9.3838e-07
9.38382e-07
9.38377e-07
9.38418e-07
9.38988e-07
9.38867e-07
9.3902e-07
9.39039e-07
9.39039e-07
9.39007e-07
9.30197e-07
9.295e-07
9.29439e-07
9.29487e-07
9.30214e-07
9.3023e-07
9.3021e-07
9.29597e-07
9.29182e-07
9.28081e-07
9.28081e-07
9.28081e-07
9.29333e-07
9.29618e-07
9.30225e-07
9.29597e-07
9.29145e-07
9.28081e-07
9.28083e-07
9.28082e-07
9.28083e-07
9.28081e-07
9.2931e-07
9.29616e-07
9.30228e-07
9.30197e-07
9.29182e-07
9.28081e-07
9.28082e-07
9.28082e-07
9.28082e-07
9.28082e-07
9.28082e-07
9.28081e-07
9.29335e-07
9.29702e-07
9.30242e-07
9.295e-07
9.28081e-07
9.28083e-07
9.28082e-07
9.28083e-07
9.28082e-07
9.28083e-07
9.28082e-07
9.28083e-07
9.28081e-07
9.29763e-07
9.30395e-07
9.29439e-07
9.28081e-07
9.28082e-07
9.28082e-07
9.28082e-07
9.28083e-07
9.28082e-07
9.28082e-07
9.28082e-07
9.28081e-07
9.29756e-07
9.30414e-07
9.29487e-07
9.28081e-07
9.28083e-07
9.28082e-07
9.28083e-07
9.28082e-07
9.28083e-07
9.28082e-07
9.28083e-07
9.28081e-07
9.29757e-07
9.30414e-07
9.30214e-07
9.29333e-07
9.28081e-07
9.28082e-07
9.28082e-07
9.28082e-07
9.28082e-07
9.28082e-07
9.28081e-07
9.29552e-07
9.29753e-07
9.30383e-07
9.3023e-07
9.29618e-07
9.2931e-07
9.28081e-07
9.28083e-07
9.28082e-07
9.28083e-07
9.28081e-07
9.2952e-07
9.29672e-07
9.29793e-07
9.30225e-07
9.29616e-07
9.29335e-07
9.28081e-07
9.28081e-07
9.28081e-07
9.29552e-07
9.29672e-07
9.29769e-07
9.30364e-07
9.30228e-07
9.29702e-07
9.29763e-07
9.29756e-07
9.29757e-07
9.29753e-07
9.29793e-07
9.30364e-07
9.30242e-07
9.30395e-07
9.30414e-07
9.30414e-07
9.30383e-07
9.21572e-07
9.20875e-07
9.20814e-07
9.20862e-07
9.21589e-07
9.21605e-07
9.21585e-07
9.20972e-07
9.20557e-07
9.19456e-07
9.19456e-07
9.19456e-07
9.20708e-07
9.20993e-07
9.216e-07
9.20972e-07
9.2052e-07
9.19456e-07
9.19458e-07
9.19457e-07
9.19458e-07
9.19456e-07
9.20685e-07
9.20991e-07
9.21603e-07
9.21572e-07
9.20557e-07
9.19456e-07
9.19457e-07
9.19457e-07
9.19457e-07
9.19457e-07
9.19457e-07
9.19456e-07
9.20711e-07
9.21077e-07
9.21617e-07
9.20875e-07
9.19456e-07
9.19458e-07
9.19457e-07
9.19458e-07
9.19457e-07
9.19458e-07
9.19457e-07
9.19458e-07
9.19456e-07
9.21138e-07
9.2177e-07
9.20814e-07
9.19456e-07
9.19457e-07
9.19457e-07
9.19457e-07
9.19458e-07
9.19457e-07
9.19457e-07
9.19457e-07
9.19456e-07
9.21131e-07
9.21789e-07
9.20862e-07
9.19456e-07
9.19458e-07
9.19457e-07
9.19458e-07
9.19457e-07
9.19458e-07
9.19457e-07
9.19458e-07
9.19456e-07
9.21133e-07
9.21789e-07
9.21589e-07
9.20708e-07
9.19456e-07
9.19457e-07
9.19457e-07
9.19457e-07
9.19457e-07
9.19457e-07
9.19456e-07
9.20927e-07
9.21128e-07
9.21758e-07
9.21605e-07
9.20993e-07
9.20685e-07
9.19456e-07
9.19458e-07
9.19457e-07
9.19458e-07
9.19456e-07
9.20894e-07
9.21048e-07
9.21168e-07
9.216e-07
9.20991e-07
9.20711e-07
9.19456e-07
9.19456e-07
9.19456e-07
9.20927e-07
9.21048e-07
9.21144e-07
9.21739e-07
9.21603e-07
9.21077e-07
9.21138e-07
9.21131e-07
9.21133e-07
9.21128e-07
9.21168e-07
9.21739e-07
9.21617e-07
9.2177e-07
9.21789e-07
9.21789e-07
9.21758e-07
9.12947e-07
9.1225e-07
9.12189e-07
9.12237e-07
9.12964e-07
9.12981e-07
9.1296e-07
9.12348e-07
9.11932e-07
9.10831e-07
9.10832e-07
9.10831e-07
9.12083e-07
9.12369e-07
9.12975e-07
9.12348e-07
9.11895e-07
9.10831e-07
9.10833e-07
9.10832e-07
9.10833e-07
9.10831e-07
9.12061e-07
9.12366e-07
9.12979e-07
9.12947e-07
9.11932e-07
9.10831e-07
9.10832e-07
9.10832e-07
9.10832e-07
9.10832e-07
9.10832e-07
9.10831e-07
9.12086e-07
9.12453e-07
9.12993e-07
9.1225e-07
9.10831e-07
9.10833e-07
9.10832e-07
9.10833e-07
9.10832e-07
9.10833e-07
9.10832e-07
9.10833e-07
9.10831e-07
9.12514e-07
9.13146e-07
9.12189e-07
9.10832e-07
9.10832e-07
9.10832e-07
9.10832e-07
9.10832e-07
9.10832e-07
9.10832e-07
9.10832e-07
9.10832e-07
9.12506e-07
9.13165e-07
9.12237e-07
9.10831e-07
9.10833e-07
9.10832e-07
9.10833e-07
9.10832e-07
9.10833e-07
9.10832e-07
9.10833e-07
9.10831e-07
9.12508e-07
9.13165e-07
9.12964e-07
9.12083e-07
9.10831e-07
9.10832e-07
9.10832e-07
9.10832e-07
9.10832e-07
9.10832e-07
9.10831e-07
9.12303e-07
9.12503e-07
9.13133e-07
9.12981e-07
9.12369e-07
9.12061e-07
9.10831e-07
9.10833e-07
9.10832e-07
9.10833e-07
9.10831e-07
9.1227e-07
9.12423e-07
9.12544e-07
9.12975e-07
9.12366e-07
9.12086e-07
9.10831e-07
9.10832e-07
9.10831e-07
9.12303e-07
9.12423e-07
9.12519e-07
9.13114e-07
9.12979e-07
9.12453e-07
9.12514e-07
9.12506e-07
9.12508e-07
9.12503e-07
9.12544e-07
9.13114e-07
9.12993e-07
9.13146e-07
9.13165e-07
9.13165e-07
9.13133e-07
9.04323e-07
9.03626e-07
9.03565e-07
9.03612e-07
9.04339e-07
9.04356e-07
9.04335e-07
9.03723e-07
9.03308e-07
9.02206e-07
9.02207e-07
9.02206e-07
9.03459e-07
9.03744e-07
9.04351e-07
9.03723e-07
9.0327e-07
9.02207e-07
9.02208e-07
9.02207e-07
9.02208e-07
9.02207e-07
9.03436e-07
9.03741e-07
9.04354e-07
9.04323e-07
9.03308e-07
9.02207e-07
9.02207e-07
9.02207e-07
9.02207e-07
9.02207e-07
9.02207e-07
9.02207e-07
9.03461e-07
9.03828e-07
9.04368e-07
9.03625e-07
9.02206e-07
9.02208e-07
9.02207e-07
9.02208e-07
9.02207e-07
9.02208e-07
9.02207e-07
9.02208e-07
9.02206e-07
9.03889e-07
9.04521e-07
9.03565e-07
9.02207e-07
9.02207e-07
9.02207e-07
9.02207e-07
9.02207e-07
9.02207e-07
9.02207e-07
9.02207e-07
9.02207e-07
9.03881e-07
9.0454e-07
9.03612e-07
9.02206e-07
9.02208e-07
9.02207e-07
9.02208e-07
9.02207e-07
9.02208e-07
9.02207e-07
9.02208e-07
9.02206e-07
9.03883e-07
9.0454e-07
9.04339e-07
9.03459e-07
9.02207e-07
9.02207e-07
9.02207e-07
9.02207e-07
9.02207e-07
9.02207e-07
9.02207e-07
9.03678e-07
9.03878e-07
9.04508e-07
9.04356e-07
9.03744e-07
9.03436e-07
9.02207e-07
9.02208e-07
9.02207e-07
9.02208e-07
9.02207e-07
9.03645e-07
9.03798e-07
9.03919e-07
9.04351e-07
9.03741e-07
9.03461e-07
9.02206e-07
9.02207e-07
9.02206e-07
9.03678e-07
9.03798e-07
9.03894e-07
9.0449e-07
9.04354e-07
9.03828e-07
9.03889e-07
9.03881e-07
9.03883e-07
9.03878e-07
9.03919e-07
9.04489e-07
9.04368e-07
9.04521e-07
9.0454e-07
9.0454e-07
9.04508e-07
8.95698e-07
8.95001e-07
8.9494e-07
8.94988e-07
8.95714e-07
8.95731e-07
8.95711e-07
8.95098e-07
8.94683e-07
8.93581e-07
8.93582e-07
8.93581e-07
8.94834e-07
8.95119e-07
8.95726e-07
8.95098e-07
8.94645e-07
8.93582e-07
8.93583e-07
8.93582e-07
8.93583e-07
8.93582e-07
8.94811e-07
8.95117e-07
8.95729e-07
8.95698e-07
8.94683e-07
8.93582e-07
8.93583e-07
8.93582e-07
8.93582e-07
8.93582e-07
8.93583e-07
8.93582e-07
8.94836e-07
8.95203e-07
8.95743e-07
8.95001e-07
8.93581e-07
8.93583e-07
8.93582e-07
8.93583e-07
8.93582e-07
8.93583e-07
8.93582e-07
8.93583e-07
8.93581e-07
8.95264e-07
8.95896e-07
8.9494e-07
8.93582e-07
8.93582e-07
8.93582e-07
8.93582e-07
8.93582e-07
8.93582e-07
8.93582e-07
8.93582e-07
8.93582e-07
8.95257e-07
8.95915e-07
8.94988e-07
8.93581e-07
8.93583e-07
8.93582e-07
8.93583e-07
8.93582e-07
8.93583e-07
8.93582e-07
8.93583e-07
8.93581e-07
8.95258e-07
8.95915e-07
8.95714e-07
8.94834e-07
8.93582e-07
8.93583e-07
8.93582e-07
8.93582e-07
8.93582e-07
8.93583e-07
8.93582e-07
8.95053e-07
8.95254e-07
8.95884e-07
8.95731e-07
8.95119e-07
8.94811e-07
8.93582e-07
8.93583e-07
8.93582e-07
8.93584e-07
8.93582e-07
8.9502e-07
8.95173e-07
8.95294e-07
8.95726e-07
8.95117e-07
8.94836e-07
8.93581e-07
8.93582e-07
8.93581e-07
8.95053e-07
8.95173e-07
8.95269e-07
8.95865e-07
8.95729e-07
8.95203e-07
8.95264e-07
8.95257e-07
8.95258e-07
8.95253e-07
8.95294e-07
8.95865e-07
8.95743e-07
8.95896e-07
8.95915e-07
8.95915e-07
8.95884e-07
8.87073e-07
8.86376e-07
8.86315e-07
8.86363e-07
8.8709e-07
8.87106e-07
8.87086e-07
8.86473e-07
8.86058e-07
8.84957e-07
8.84957e-07
8.84957e-07
8.86209e-07
8.86494e-07
8.87101e-07
8.86473e-07
8.86021e-07
8.84957e-07
8.84959e-07
8.84958e-07
8.84959e-07
8.84957e-07
8.86186e-07
8.86492e-07
8.87104e-07
8.87073e-07
8.86058e-07
8.84957e-07
8.84958e-07
8.84957e-07
8.84958e-07
8.84957e-07
8.84958e-07
8.84957e-07
8.86212e-07
8.86578e-07
8.87118e-07
8.86376e-07
8.84957e-07
8.84959e-07
8.84957e-07
8.84959e-07
8.84957e-07
8.84959e-07
8.84957e-07
8.84959e-07
8.84957e-07
8.86639e-07
8.87271e-07
8.86315e-07
8.84957e-07
8.84958e-07
8.84958e-07
8.84957e-07
8.84958e-07
8.84957e-07
8.84958e-07
8.84958e-07
8.84957e-07
8.86632e-07
8.8729e-07
8.86363e-07
8.84957e-07
8.84959e-07
8.84957e-07
8.84959e-07
8.84957e-07
8.84959e-07
8.84957e-07
8.84959e-07
8.84957e-07
8.86634e-07
8.8729e-07
8.8709e-07
8.86209e-07
8.84957e-07
8.84958e-07
8.84957e-07
8.84958e-07
8.84957e-07
8.84958e-07
8.84957e-07
8.86428e-07
8.86629e-07
8.87259e-07
8.87106e-07
8.86494e-07
8.86186e-07
8.84957e-07
8.84959e-07
8.84958e-07
8.84959e-07
8.84957e-07
8.86395e-07
8.86549e-07
8.86669e-07
8.87101e-07
8.86492e-07
8.86212e-07
8.84957e-07
8.84957e-07
8.84957e-07
8.86428e-07
8.86549e-07
8.86645e-07
8.8724e-07
8.87104e-07
8.86578e-07
8.86639e-07
8.86632e-07
8.86634e-07
8.86629e-07
8.86669e-07
8.8724e-07
8.87118e-07
8.87271e-07
8.8729e-07
8.8729e-07
8.87259e-07
8.78448e-07
8.77751e-07
8.7769e-07
8.77738e-07
8.78465e-07
8.78482e-07
8.78461e-07
8.77849e-07
8.77433e-07
8.76332e-07
8.76333e-07
8.76332e-07
8.77584e-07
8.7787e-07
8.78476e-07
8.77849e-07
8.77396e-07
8.76332e-07
8.76334e-07
8.76333e-07
8.76334e-07
8.76332e-07
8.77561e-07
8.77867e-07
8.78479e-07
8.78448e-07
8.77433e-07
8.76332e-07
8.76333e-07
8.76332e-07
8.76333e-07
8.76332e-07
8.76333e-07
8.76332e-07
8.77587e-07
8.77954e-07
8.78493e-07
8.77751e-07
8.76332e-07
8.76334e-07
8.76332e-07
8.76334e-07
8.76333e-07
8.76334e-07
8.76332e-07
8.76334e-07
8.76332e-07
8.78014e-07
8.78646e-07
8.7769e-07
8.76333e-07
8.76333e-07
8.76333e-07
8.76333e-07
8.76333e-07
8.76333e-07
8.76333e-07
8.76333e-07
8.76333e-07
8.78007e-07
8.78666e-07
8.77738e-07
8.76332e-07
8.76334e-07
8.76332e-07
8.76334e-07
8.76333e-07
8.76334e-07
8.76332e-07
8.76334e-07
8.76332e-07
8.78009e-07
8.78666e-07
8.78465e-07
8.77584e-07
8.76332e-07
8.76333e-07
8.76332e-07
8.76333e-07
8.76332e-07
8.76333e-07
8.76332e-07
8.77804e-07
8.78004e-07
8.78634e-07
8.78482e-07
8.7787e-07
8.77561e-07
8.76332e-07
8.76334e-07
8.76333e-07
8.76334e-07
8.76332e-07
8.77771e-07
8.77924e-07
8.78044e-07
8.78476e-07
8.77867e-07
8.77587e-07
8.76332e-07
8.76333e-07
8.76332e-07
8.77804e-07
8.77924e-07
8.7802e-07
8.78615e-07
8.78479e-07
8.77954e-07
8.78014e-07
8.78007e-07
8.78009e-07
8.78004e-07
8.78044e-07
8.78615e-07
8.78493e-07
8.78646e-07
8.78666e-07
8.78666e-07
8.78634e-07
8.69824e-07
8.69126e-07
8.69066e-07
8.69113e-07
8.6984e-07
8.69857e-07
8.69836e-07
8.69224e-07
8.68809e-07
8.67707e-07
8.67708e-07
8.67707e-07
8.6896e-07
8.69245e-07
8.69852e-07
8.69224e-07
8.68771e-07
8.67708e-07
8.67709e-07
8.67708e-07
8.67709e-07
8.67708e-07
8.68937e-07
8.69242e-07
8.69855e-07
8.69824e-07
8.68809e-07
8.67708e-07
8.67708e-07
8.67708e-07
8.67708e-07
8.67708e-07
8.67708e-07
8.67708e-07
8.68962e-07
8.69329e-07
8.69869e-07
8.69126e-07
8.67707e-07
8.67709e-07
8.67708e-07
8.67709e-07
8.67708e-07
8.67709e-07
8.67708e-07
8.67709e-07
8.67707e-07
8.6939e-07
8.70022e-07
8.69066e-07
8.67708e-07
8.67708e-07
8.67708e-07
8.67708e-07
8.67708e-07
8.67708e-07
8.67708e-07
8.67708e-07
8.67708e-07
8.69382e-07
8.70041e-07
8.69113e-07
8.67707e-07
8.67709e-07
8.67708e-07
8.67709e-07
8.67708e-07
8.67709e-07
8.67708e-07
8.67709e-07
8.67707e-07
8.69384e-07
8.70041e-07
8.6984e-07
8.6896e-07
8.67708e-07
8.67708e-07
8.67708e-07
8.67708e-07
8.67708e-07
8.67708e-07
8.67708e-07
8.69179e-07
8.69379e-07
8.70009e-07
8.69857e-07
8.69245e-07
8.68937e-07
8.67708e-07
8.67709e-07
8.67708e-07
8.67709e-07
8.67708e-07
8.69146e-07
8.69299e-07
8.6942e-07
8.69852e-07
8.69242e-07
8.68962e-07
8.67707e-07
8.67708e-07
8.67707e-07
8.69179e-07
8.69299e-07
8.69395e-07
8.6999e-07
8.69855e-07
8.69329e-07
8.6939e-07
8.69382e-07
8.69384e-07
8.69379e-07
8.6942e-07
8.6999e-07
8.69869e-07
8.70022e-07
8.70041e-07
8.70041e-07
8.70009e-07
8.61199e-07
8.60502e-07
8.60441e-07
8.60489e-07
8.61215e-07
8.61232e-07
8.61212e-07
8.60599e-07
8.60184e-07
8.59082e-07
8.59083e-07
8.59082e-07
8.60335e-07
8.6062e-07
8.61227e-07
8.60599e-07
8.60146e-07
8.59083e-07
8.59084e-07
8.59083e-07
8.59084e-07
8.59083e-07
8.60312e-07
8.60617e-07
8.6123e-07
8.61199e-07
8.60184e-07
8.59083e-07
8.59084e-07
8.59083e-07
8.59083e-07
8.59083e-07
8.59084e-07
8.59083e-07
8.60337e-07
8.60704e-07
8.61244e-07
8.60502e-07
8.59082e-07
8.59084e-07
8.59083e-07
8.59084e-07
8.59083e-07
8.59084e-07
8.59083e-07
8.59084e-07
8.59082e-07
8.60765e-07
8.61397e-07
8.60441e-07
8.59083e-07
8.59083e-07
8.59083e-07
8.59083e-07
8.59083e-07
8.59083e-07
8.59083e-07
8.59083e-07
8.59083e-07
8.60758e-07
8.61416e-07
8.60489e-07
8.59082e-07
8.59084e-07
8.59083e-07
8.59084e-07
8.59083e-07
8.59084e-07
8.59083e-07
8.59084e-07
8.59082e-07
8.60759e-07
8.61416e-07
8.61215e-07
8.60335e-07
8.59083e-07
8.59084e-07
8.59083e-07
8.59083e-07
8.59083e-07
8.59084e-07
8.59083e-07
8.60554e-07
8.60754e-07
8.61385e-07
8.61232e-07
8.6062e-07
8.60312e-07
8.59083e-07
8.59084e-07
8.59083e-07
8.59084e-07
8.59083e-07
8.60521e-07
8.60674e-07
8.60795e-07
8.61227e-07
8.60617e-07
8.60337e-07
8.59082e-07
8.59083e-07
8.59082e-07
8.60554e-07
8.60674e-07
8.6077e-07
8.61366e-07
8.6123e-07
8.60704e-07
8.60765e-07
8.60757e-07
8.60759e-07
8.60754e-07
8.60795e-07
8.61366e-07
8.61244e-07
8.61397e-07
8.61416e-07
8.61416e-07
8.61385e-07
8.52574e-07
8.51877e-07
8.51816e-07
8.51864e-07
8.52591e-07
8.52607e-07
8.52587e-07
8.51974e-07
8.51559e-07
8.50458e-07
8.50458e-07
8.50458e-07
8.5171e-07
8.51995e-07
8.52602e-07
8.51974e-07
8.51522e-07
8.50458e-07
8.5046e-07
8.50458e-07
8.5046e-07
8.50458e-07
8.51687e-07
8.51993e-07
8.52605e-07
8.52574e-07
8.51559e-07
8.50458e-07
8.50459e-07
8.50458e-07
8.50459e-07
8.50458e-07
8.50459e-07
8.50458e-07
8.51713e-07
8.52079e-07
8.52619e-07
8.51877e-07
8.50457e-07
8.5046e-07
8.50458e-07
8.50459e-07
8.50458e-07
8.50459e-07
8.50458e-07
8.5046e-07
8.50458e-07
8.5214e-07
8.52772e-07
8.51816e-07
8.50458e-07
8.50458e-07
8.50458e-07
8.50458e-07
8.50458e-07
8.50458e-07
8.50459e-07
8.50458e-07
8.50458e-07
8.52133e-07
8.52791e-07
8.51864e-07
8.50458e-07