/*--------------------------------*- C++ -*----------------------------------*\
| =========                 |                                                 |
| \\      /  F ield         | OpenFOAM: The Open Source CFD Toolbox           |
|  \\    /   O peration     | Version:  v2012                                 |
|   \\  /    A nd           | Website:  www.openfoam.com                      |
|    \\/     M anipulation  |                                                 |
\*---------------------------------------------------------------------------*/
FoamFile
{
    version     2.0;
    format      ascii;
    class       volScalarField;
    location    "18";
    object      p;
}
// * * * * * * * * * * * * * * * * * * * * * * * * * * * * * * * * * * * * * //

dimensions      [0 2 -2 0 0 0 0];


internalField   nonuniform List<scalar> 
292667
(
1.65317e-06
1.64061e-06
1.6395e-06
1.63961e-06
1.6412e-06
1.65419e-06
1.64086e-06
1.6369e-06
1.63465e-06
1.63374e-06
1.63386e-06
1.63507e-06
1.63771e-06
1.64209e-06
1.64086e-06
1.63576e-06
1.6327e-06
1.63103e-06
1.63033e-06
1.63043e-06
1.63134e-06
1.6333e-06
1.6368e-06
1.64246e-06
1.65317e-06
1.6369e-06
1.6327e-06
1.63026e-06
1.6289e-06
1.62832e-06
1.6284e-06
1.62916e-06
1.63075e-06
1.63354e-06
1.63833e-06
1.65373e-06
1.64061e-06
1.63465e-06
1.63103e-06
1.6289e-06
1.62769e-06
1.62717e-06
1.62724e-06
1.62792e-06
1.62933e-06
1.63176e-06
1.6359e-06
1.64595e-06
1.6395e-06
1.63374e-06
1.63033e-06
1.62832e-06
1.62717e-06
1.62666e-06
1.62673e-06
1.62739e-06
1.62872e-06
1.63102e-06
1.63492e-06
1.64349e-06
1.63961e-06
1.63386e-06
1.63043e-06
1.6284e-06
1.62724e-06
1.62673e-06
1.62681e-06
1.62746e-06
1.62881e-06
1.63112e-06
1.63505e-06
1.64382e-06
1.6412e-06
1.63507e-06
1.63134e-06
1.62916e-06
1.62792e-06
1.62739e-06
1.62746e-06
1.62816e-06
1.6296e-06
1.6321e-06
1.63637e-06
1.6464e-06
1.65419e-06
1.63771e-06
1.6333e-06
1.63075e-06
1.62933e-06
1.62872e-06
1.62881e-06
1.6296e-06
1.63126e-06
1.63419e-06
1.63918e-06
1.65401e-06
1.64209e-06
1.6368e-06
1.63354e-06
1.63176e-06
1.63102e-06
1.63112e-06
1.6321e-06
1.63419e-06
1.63792e-06
1.64681e-06
1.64246e-06
1.63833e-06
1.6359e-06
1.63492e-06
1.63505e-06
1.63637e-06
1.63918e-06
1.64681e-06
1.65373e-06
1.64595e-06
1.64349e-06
1.64382e-06
1.6464e-06
1.65401e-06
1.61683e-06
1.61532e-06
1.61529e-06
1.61532e-06
1.61666e-06
1.61665e-06
1.61691e-06
1.61568e-06
1.61517e-06
1.61299e-06
1.61295e-06
1.61298e-06
1.61523e-06
1.61554e-06
1.61677e-06
1.61568e-06
1.61517e-06
1.61306e-06
1.61292e-06
1.61295e-06
1.61292e-06
1.61306e-06
1.61516e-06
1.61554e-06
1.61673e-06
1.61683e-06
1.61517e-06
1.61306e-06
1.61295e-06
1.61296e-06
1.61296e-06
1.61296e-06
1.61295e-06
1.61306e-06
1.61516e-06
1.61558e-06
1.61691e-06
1.61532e-06
1.61299e-06
1.61292e-06
1.61296e-06
1.61294e-06
1.61293e-06
1.61294e-06
1.61296e-06
1.61292e-06
1.61298e-06
1.61556e-06
1.61683e-06
1.61529e-06
1.61295e-06
1.61295e-06
1.61296e-06
1.61293e-06
1.61292e-06
1.61293e-06
1.61296e-06
1.61295e-06
1.61295e-06
1.61549e-06
1.61654e-06
1.61532e-06
1.61298e-06
1.61292e-06
1.61296e-06
1.61294e-06
1.61293e-06
1.61294e-06
1.61296e-06
1.61292e-06
1.61298e-06
1.61552e-06
1.61662e-06
1.61666e-06
1.61523e-06
1.61306e-06
1.61295e-06
1.61296e-06
1.61296e-06
1.61296e-06
1.61295e-06
1.61306e-06
1.61515e-06
1.61559e-06
1.61686e-06
1.61665e-06
1.61554e-06
1.61516e-06
1.61306e-06
1.61292e-06
1.61295e-06
1.61292e-06
1.61306e-06
1.61512e-06
1.61547e-06
1.61565e-06
1.61677e-06
1.61554e-06
1.61516e-06
1.61298e-06
1.61295e-06
1.61298e-06
1.61515e-06
1.61547e-06
1.61575e-06
1.61693e-06
1.61673e-06
1.61558e-06
1.61556e-06
1.61549e-06
1.61552e-06
1.61559e-06
1.61565e-06
1.61693e-06
1.61691e-06
1.61683e-06
1.61654e-06
1.61662e-06
1.61686e-06
1.60298e-06
1.60159e-06
1.60151e-06
1.60155e-06
1.60285e-06
1.60299e-06
1.60307e-06
1.60181e-06
1.60126e-06
1.59906e-06
1.59906e-06
1.59906e-06
1.60135e-06
1.60173e-06
1.60291e-06
1.60181e-06
1.60127e-06
1.59913e-06
1.5991e-06
1.59914e-06
1.5991e-06
1.59913e-06
1.60131e-06
1.6017e-06
1.60292e-06
1.60298e-06
1.60126e-06
1.59913e-06
1.59912e-06
1.59919e-06
1.5992e-06
1.59919e-06
1.59912e-06
1.59913e-06
1.6013e-06
1.60178e-06
1.60305e-06
1.60159e-06
1.59906e-06
1.5991e-06
1.59919e-06
1.59922e-06
1.59923e-06
1.59922e-06
1.59919e-06
1.5991e-06
1.59906e-06
1.60172e-06
1.60308e-06
1.60151e-06
1.59906e-06
1.59914e-06
1.5992e-06
1.59923e-06
1.59924e-06
1.59923e-06
1.5992e-06
1.59914e-06
1.59906e-06
1.60167e-06
1.60302e-06
1.60155e-06
1.59906e-06
1.5991e-06
1.59919e-06
1.59922e-06
1.59923e-06
1.59922e-06
1.59919e-06
1.5991e-06
1.59906e-06
1.6017e-06
1.60302e-06
1.60285e-06
1.60135e-06
1.59913e-06
1.59912e-06
1.59919e-06
1.5992e-06
1.59919e-06
1.59912e-06
1.59913e-06
1.60135e-06
1.60176e-06
1.60311e-06
1.60299e-06
1.60173e-06
1.60131e-06
1.59913e-06
1.5991e-06
1.59914e-06
1.5991e-06
1.59913e-06
1.60132e-06
1.60163e-06
1.60189e-06
1.60291e-06
1.6017e-06
1.6013e-06
1.59906e-06
1.59906e-06
1.59906e-06
1.60135e-06
1.60163e-06
1.60187e-06
1.60312e-06
1.60292e-06
1.60178e-06
1.60172e-06
1.60167e-06
1.6017e-06
1.60176e-06
1.60189e-06
1.60312e-06
1.60305e-06
1.60308e-06
1.60302e-06
1.60302e-06
1.60311e-06
1.58931e-06
1.58789e-06
1.5878e-06
1.58785e-06
1.58917e-06
1.58932e-06
1.58939e-06
1.5881e-06
1.5875e-06
1.58529e-06
1.58529e-06
1.58529e-06
1.58758e-06
1.58803e-06
1.58923e-06
1.5881e-06
1.58749e-06
1.58533e-06
1.58533e-06
1.58535e-06
1.58533e-06
1.58533e-06
1.58755e-06
1.58801e-06
1.58924e-06
1.58931e-06
1.5875e-06
1.58533e-06
1.58535e-06
1.5854e-06
1.5854e-06
1.5854e-06
1.58535e-06
1.58533e-06
1.58756e-06
1.5881e-06
1.58937e-06
1.58789e-06
1.58529e-06
1.58533e-06
1.5854e-06
1.58542e-06
1.58544e-06
1.58542e-06
1.5854e-06
1.58533e-06
1.58529e-06
1.58802e-06
1.5894e-06
1.5878e-06
1.58529e-06
1.58535e-06
1.58541e-06
1.58544e-06
1.58545e-06
1.58544e-06
1.5854e-06
1.58535e-06
1.58529e-06
1.58797e-06
1.58934e-06
1.58785e-06
1.58529e-06
1.58533e-06
1.5854e-06
1.58543e-06
1.58544e-06
1.58542e-06
1.5854e-06
1.58533e-06
1.58529e-06
1.58799e-06
1.58934e-06
1.58917e-06
1.58758e-06
1.58533e-06
1.58535e-06
1.5854e-06
1.5854e-06
1.5854e-06
1.58535e-06
1.58533e-06
1.58763e-06
1.58808e-06
1.58943e-06
1.58932e-06
1.58803e-06
1.58755e-06
1.58533e-06
1.58533e-06
1.58535e-06
1.58533e-06
1.58533e-06
1.5876e-06
1.58794e-06
1.5882e-06
1.58923e-06
1.58801e-06
1.58756e-06
1.58529e-06
1.58529e-06
1.58529e-06
1.58763e-06
1.58794e-06
1.58817e-06
1.58944e-06
1.58924e-06
1.5881e-06
1.58802e-06
1.58797e-06
1.58799e-06
1.58808e-06
1.5882e-06
1.58944e-06
1.58937e-06
1.5894e-06
1.58934e-06
1.58934e-06
1.58943e-06
1.57561e-06
1.57419e-06
1.5741e-06
1.57415e-06
1.57547e-06
1.57563e-06
1.5757e-06
1.57439e-06
1.57378e-06
1.57156e-06
1.57156e-06
1.57156e-06
1.57387e-06
1.57433e-06
1.57554e-06
1.5744e-06
1.57376e-06
1.57158e-06
1.57159e-06
1.5716e-06
1.57159e-06
1.57158e-06
1.57383e-06
1.57431e-06
1.57555e-06
1.57561e-06
1.57378e-06
1.57158e-06
1.5716e-06
1.57163e-06
1.57164e-06
1.57163e-06
1.5716e-06
1.57158e-06
1.57384e-06
1.57441e-06
1.57568e-06
1.57419e-06
1.57156e-06
1.57159e-06
1.57163e-06
1.57165e-06
1.57166e-06
1.57165e-06
1.57163e-06
1.57159e-06
1.57156e-06
1.57432e-06
1.57571e-06
1.5741e-06
1.57156e-06
1.5716e-06
1.57164e-06
1.57166e-06
1.57167e-06
1.57166e-06
1.57164e-06
1.5716e-06
1.57156e-06
1.57427e-06
1.57564e-06
1.57415e-06
1.57156e-06
1.57159e-06
1.57163e-06
1.57165e-06
1.57166e-06
1.57165e-06
1.57163e-06
1.57159e-06
1.57156e-06
1.57429e-06
1.57565e-06
1.57547e-06
1.57387e-06
1.57158e-06
1.5716e-06
1.57163e-06
1.57164e-06
1.57163e-06
1.5716e-06
1.57158e-06
1.57393e-06
1.57438e-06
1.57574e-06
1.57563e-06
1.57433e-06
1.57383e-06
1.57158e-06
1.57159e-06
1.5716e-06
1.57159e-06
1.57158e-06
1.57389e-06
1.57424e-06
1.57451e-06
1.57554e-06
1.57431e-06
1.57384e-06
1.57156e-06
1.57156e-06
1.57156e-06
1.57393e-06
1.57424e-06
1.57448e-06
1.57575e-06
1.57555e-06
1.57441e-06
1.57432e-06
1.57427e-06
1.57429e-06
1.57438e-06
1.57451e-06
1.57575e-06
1.57568e-06
1.57571e-06
1.57564e-06
1.57565e-06
1.57574e-06
1.56192e-06
1.56049e-06
1.5604e-06
1.56045e-06
1.56178e-06
1.56193e-06
1.562e-06
1.5607e-06
1.56008e-06
1.55785e-06
1.55785e-06
1.55785e-06
1.56016e-06
1.56063e-06
1.56184e-06
1.56069e-06
1.56005e-06
1.55786e-06
1.55787e-06
1.55787e-06
1.55787e-06
1.55786e-06
1.56012e-06
1.56061e-06
1.56185e-06
1.56192e-06
1.56008e-06
1.55786e-06
1.55787e-06
1.55789e-06
1.55789e-06
1.55789e-06
1.55787e-06
1.55786e-06
1.56014e-06
1.56071e-06
1.56199e-06
1.56049e-06
1.55785e-06
1.55787e-06
1.55789e-06
1.5579e-06
1.55791e-06
1.5579e-06
1.55789e-06
1.55787e-06
1.55785e-06
1.56063e-06
1.56201e-06
1.5604e-06
1.55785e-06
1.55787e-06
1.55789e-06
1.55791e-06
1.55792e-06
1.55791e-06
1.55789e-06
1.55787e-06
1.55785e-06
1.56057e-06
1.56195e-06
1.56045e-06
1.55785e-06
1.55787e-06
1.55789e-06
1.5579e-06
1.55791e-06
1.5579e-06
1.55789e-06
1.55787e-06
1.55785e-06
1.56059e-06
1.56195e-06
1.56178e-06
1.56016e-06
1.55786e-06
1.55787e-06
1.55789e-06
1.55789e-06
1.55789e-06
1.55787e-06
1.55786e-06
1.56023e-06
1.56069e-06
1.56204e-06
1.56193e-06
1.56063e-06
1.56012e-06
1.55786e-06
1.55787e-06
1.55787e-06
1.55787e-06
1.55786e-06
1.56019e-06
1.56054e-06
1.56082e-06
1.56184e-06
1.56061e-06
1.56014e-06
1.55785e-06
1.55785e-06
1.55785e-06
1.56023e-06
1.56054e-06
1.56078e-06
1.56206e-06
1.56185e-06
1.56071e-06
1.56063e-06
1.56057e-06
1.56059e-06
1.56069e-06
1.56082e-06
1.56206e-06
1.56199e-06
1.56201e-06
1.56195e-06
1.56195e-06
1.56204e-06
1.54822e-06
1.54679e-06
1.5467e-06
1.54675e-06
1.54808e-06
1.54823e-06
1.5483e-06
1.547e-06
1.54638e-06
1.54415e-06
1.54415e-06
1.54415e-06
1.54646e-06
1.54693e-06
1.54814e-06
1.547e-06
1.54635e-06
1.54415e-06
1.54416e-06
1.54416e-06
1.54416e-06
1.54415e-06
1.54642e-06
1.54691e-06
1.54815e-06
1.54822e-06
1.54638e-06
1.54415e-06
1.54416e-06
1.54417e-06
1.54417e-06
1.54417e-06
1.54416e-06
1.54415e-06
1.54644e-06
1.54701e-06
1.54829e-06
1.54679e-06
1.54415e-06
1.54416e-06
1.54417e-06
1.54418e-06
1.54418e-06
1.54418e-06
1.54417e-06
1.54416e-06
1.54415e-06
1.54693e-06
1.54831e-06
1.5467e-06
1.54415e-06
1.54416e-06
1.54417e-06
1.54418e-06
1.54418e-06
1.54418e-06
1.54417e-06
1.54416e-06
1.54415e-06
1.54687e-06
1.54825e-06
1.54675e-06
1.54415e-06
1.54416e-06
1.54417e-06
1.54418e-06
1.54418e-06
1.54418e-06
1.54417e-06
1.54416e-06
1.54415e-06
1.54689e-06
1.54826e-06
1.54808e-06
1.54646e-06
1.54415e-06
1.54416e-06
1.54417e-06
1.54417e-06
1.54417e-06
1.54416e-06
1.54415e-06
1.54653e-06
1.54699e-06
1.54835e-06
1.54823e-06
1.54693e-06
1.54642e-06
1.54415e-06
1.54416e-06
1.54416e-06
1.54416e-06
1.54415e-06
1.54649e-06
1.54684e-06
1.54712e-06
1.54814e-06
1.54691e-06
1.54644e-06
1.54415e-06
1.54415e-06
1.54415e-06
1.54653e-06
1.54684e-06
1.54709e-06
1.54836e-06
1.54815e-06
1.54701e-06
1.54693e-06
1.54687e-06
1.54689e-06
1.54699e-06
1.54712e-06
1.54836e-06
1.54829e-06
1.54831e-06
1.54825e-06
1.54826e-06
1.54835e-06
1.53452e-06
1.53309e-06
1.533e-06
1.53305e-06
1.53438e-06
1.53453e-06
1.53461e-06
1.5333e-06
1.53268e-06
1.53045e-06
1.53045e-06
1.53045e-06
1.53276e-06
1.53323e-06
1.53444e-06
1.5333e-06
1.53265e-06
1.53045e-06
1.53045e-06
1.53045e-06
1.53045e-06
1.53045e-06
1.53272e-06
1.53322e-06
1.53445e-06
1.53452e-06
1.53268e-06
1.53045e-06
1.53045e-06
1.53046e-06
1.53046e-06
1.53046e-06
1.53045e-06
1.53045e-06
1.53274e-06
1.53331e-06
1.53459e-06
1.53309e-06
1.53045e-06
1.53045e-06
1.53046e-06
1.53046e-06
1.53046e-06
1.53046e-06
1.53046e-06
1.53045e-06
1.53045e-06
1.53323e-06
1.53461e-06
1.533e-06
1.53045e-06
1.53045e-06
1.53046e-06
1.53046e-06
1.53047e-06
1.53046e-06
1.53046e-06
1.53045e-06
1.53045e-06
1.53317e-06
1.53455e-06
1.53305e-06
1.53045e-06
1.53045e-06
1.53046e-06
1.53046e-06
1.53046e-06
1.53046e-06
1.53046e-06
1.53045e-06
1.53045e-06
1.53319e-06
1.53456e-06
1.53438e-06
1.53276e-06
1.53045e-06
1.53045e-06
1.53046e-06
1.53046e-06
1.53046e-06
1.53045e-06
1.53045e-06
1.53283e-06
1.53329e-06
1.53465e-06
1.53453e-06
1.53323e-06
1.53272e-06
1.53045e-06
1.53045e-06
1.53045e-06
1.53045e-06
1.53045e-06
1.53279e-06
1.53314e-06
1.53342e-06
1.53444e-06
1.53322e-06
1.53274e-06
1.53045e-06
1.53045e-06
1.53045e-06
1.53283e-06
1.53314e-06
1.53339e-06
1.53466e-06
1.53445e-06
1.53331e-06
1.53323e-06
1.53317e-06
1.53319e-06
1.53329e-06
1.53342e-06
1.53466e-06
1.53459e-06
1.53461e-06
1.53455e-06
1.53456e-06
1.53465e-06
1.52082e-06
1.51939e-06
1.5193e-06
1.51935e-06
1.52068e-06
1.52084e-06
1.52091e-06
1.5196e-06
1.51898e-06
1.51675e-06
1.51675e-06
1.51675e-06
1.51906e-06
1.51953e-06
1.52074e-06
1.5196e-06
1.51895e-06
1.51675e-06
1.51675e-06
1.51675e-06
1.51675e-06
1.51675e-06
1.51902e-06
1.51952e-06
1.52075e-06
1.52082e-06
1.51898e-06
1.51675e-06
1.51675e-06
1.51675e-06
1.51675e-06
1.51675e-06
1.51675e-06
1.51675e-06
1.51904e-06
1.51961e-06
1.52089e-06
1.51939e-06
1.51675e-06
1.51675e-06
1.51675e-06
1.51675e-06
1.51676e-06
1.51675e-06
1.51675e-06
1.51675e-06
1.51675e-06
1.51953e-06
1.52091e-06
1.5193e-06
1.51675e-06
1.51675e-06
1.51675e-06
1.51676e-06
1.51676e-06
1.51676e-06
1.51675e-06
1.51675e-06
1.51675e-06
1.51947e-06
1.52085e-06
1.51935e-06
1.51675e-06
1.51675e-06
1.51675e-06
1.51675e-06
1.51676e-06
1.51675e-06
1.51675e-06
1.51675e-06
1.51675e-06
1.51949e-06
1.52086e-06
1.52068e-06
1.51906e-06
1.51675e-06
1.51675e-06
1.51675e-06
1.51675e-06
1.51675e-06
1.51675e-06
1.51675e-06
1.51913e-06
1.51959e-06
1.52095e-06
1.52084e-06
1.51953e-06
1.51902e-06
1.51675e-06
1.51675e-06
1.51675e-06
1.51675e-06
1.51675e-06
1.51909e-06
1.51945e-06
1.51972e-06
1.52074e-06
1.51952e-06
1.51904e-06
1.51675e-06
1.51675e-06
1.51675e-06
1.51913e-06
1.51945e-06
1.51969e-06
1.52096e-06
1.52075e-06
1.51961e-06
1.51953e-06
1.51947e-06
1.51949e-06
1.51959e-06
1.51972e-06
1.52096e-06
1.52089e-06
1.52091e-06
1.52085e-06
1.52086e-06
1.52095e-06
1.50712e-06
1.5057e-06
1.5056e-06
1.50565e-06
1.50698e-06
1.50714e-06
1.50721e-06
1.5059e-06
1.50528e-06
1.50305e-06
1.50305e-06
1.50305e-06
1.50536e-06
1.50583e-06
1.50705e-06
1.5059e-06
1.50525e-06
1.50305e-06
1.50305e-06
1.50305e-06
1.50305e-06
1.50305e-06
1.50532e-06
1.50582e-06
1.50705e-06
1.50712e-06
1.50528e-06
1.50305e-06
1.50305e-06
1.50305e-06
1.50305e-06
1.50305e-06
1.50305e-06
1.50305e-06
1.50534e-06
1.50591e-06
1.50719e-06
1.5057e-06
1.50305e-06
1.50305e-06
1.50305e-06
1.50305e-06
1.50305e-06
1.50305e-06
1.50305e-06
1.50305e-06
1.50305e-06
1.50583e-06
1.50721e-06
1.5056e-06
1.50305e-06
1.50305e-06
1.50305e-06
1.50305e-06
1.50305e-06
1.50305e-06
1.50305e-06
1.50305e-06
1.50305e-06
1.50577e-06
1.50715e-06
1.50565e-06
1.50305e-06
1.50305e-06
1.50305e-06
1.50305e-06
1.50305e-06
1.50305e-06
1.50305e-06
1.50305e-06
1.50305e-06
1.50579e-06
1.50716e-06
1.50698e-06
1.50536e-06
1.50305e-06
1.50305e-06
1.50305e-06
1.50305e-06
1.50305e-06
1.50305e-06
1.50305e-06
1.50543e-06
1.50589e-06
1.50725e-06
1.50714e-06
1.50583e-06
1.50531e-06
1.50305e-06
1.50305e-06
1.50305e-06
1.50305e-06
1.50305e-06
1.50539e-06
1.50575e-06
1.50602e-06
1.50705e-06
1.50582e-06
1.50534e-06
1.50305e-06
1.50305e-06
1.50305e-06
1.50543e-06
1.50575e-06
1.50599e-06
1.50726e-06
1.50705e-06
1.50591e-06
1.50583e-06
1.50577e-06
1.5058e-06
1.50589e-06
1.50602e-06
1.50726e-06
1.50719e-06
1.50721e-06
1.50715e-06
1.50716e-06
1.50725e-06
1.49342e-06
1.492e-06
1.4919e-06
1.49195e-06
1.49328e-06
1.49344e-06
1.49351e-06
1.4922e-06
1.49158e-06
1.48935e-06
1.48935e-06
1.48935e-06
1.49166e-06
1.49213e-06
1.49335e-06
1.4922e-06
1.49155e-06
1.48935e-06
1.48935e-06
1.48935e-06
1.48935e-06
1.48935e-06
1.49162e-06
1.49212e-06
1.49336e-06
1.49342e-06
1.49158e-06
1.48935e-06
1.48935e-06
1.48935e-06
1.48935e-06
1.48935e-06
1.48935e-06
1.48935e-06
1.49164e-06
1.49221e-06
1.49349e-06
1.492e-06
1.48935e-06
1.48935e-06
1.48935e-06
1.48935e-06
1.48935e-06
1.48935e-06
1.48935e-06
1.48935e-06
1.48935e-06
1.49213e-06
1.49352e-06
1.4919e-06
1.48935e-06
1.48935e-06
1.48935e-06
1.48935e-06
1.48935e-06
1.48935e-06
1.48935e-06
1.48935e-06
1.48935e-06
1.49207e-06
1.49345e-06
1.49195e-06
1.48935e-06
1.48935e-06
1.48935e-06
1.48935e-06
1.48935e-06
1.48935e-06
1.48935e-06
1.48935e-06
1.48935e-06
1.4921e-06
1.49346e-06
1.49328e-06
1.49166e-06
1.48935e-06
1.48935e-06
1.48935e-06
1.48935e-06
1.48935e-06
1.48935e-06
1.48935e-06
1.49173e-06
1.49219e-06
1.49355e-06
1.49344e-06
1.49213e-06
1.49162e-06
1.48935e-06
1.48935e-06
1.48935e-06
1.48935e-06
1.48935e-06
1.49169e-06
1.49205e-06
1.49232e-06
1.49335e-06
1.49212e-06
1.49164e-06
1.48935e-06
1.48935e-06
1.48935e-06
1.49173e-06
1.49205e-06
1.49229e-06
1.49356e-06
1.49336e-06
1.49221e-06
1.49213e-06
1.49207e-06
1.4921e-06
1.49219e-06
1.49232e-06
1.49356e-06
1.49349e-06
1.49352e-06
1.49345e-06
1.49346e-06
1.49355e-06
1.47973e-06
1.4783e-06
1.4782e-06
1.47825e-06
1.47958e-06
1.47974e-06
1.47981e-06
1.4785e-06
1.47788e-06
1.47565e-06
1.47565e-06
1.47565e-06
1.47796e-06
1.47843e-06
1.47965e-06
1.4785e-06
1.47785e-06
1.47565e-06
1.47565e-06
1.47565e-06
1.47565e-06
1.47565e-06
1.47792e-06
1.47842e-06
1.47966e-06
1.47973e-06
1.47788e-06
1.47565e-06
1.47565e-06
1.47565e-06
1.47565e-06
1.47565e-06
1.47565e-06
1.47565e-06
1.47794e-06
1.47851e-06
1.47979e-06
1.4783e-06
1.47565e-06
1.47565e-06
1.47565e-06
1.47565e-06
1.47565e-06
1.47565e-06
1.47565e-06
1.47565e-06
1.47565e-06
1.47843e-06
1.47982e-06
1.4782e-06
1.47565e-06
1.47565e-06
1.47565e-06
1.47565e-06
1.47565e-06
1.47565e-06
1.47565e-06
1.47565e-06
1.47565e-06
1.47837e-06
1.47975e-06
1.47825e-06
1.47565e-06
1.47565e-06
1.47565e-06
1.47565e-06
1.47565e-06
1.47565e-06
1.47565e-06
1.47565e-06
1.47565e-06
1.4784e-06
1.47976e-06
1.47958e-06
1.47796e-06
1.47565e-06
1.47565e-06
1.47565e-06
1.47565e-06
1.47565e-06
1.47565e-06
1.47565e-06
1.47803e-06
1.47849e-06
1.47985e-06
1.47974e-06
1.47843e-06
1.47792e-06
1.47565e-06
1.47565e-06
1.47565e-06
1.47565e-06
1.47565e-06
1.47799e-06
1.47835e-06
1.47862e-06
1.47965e-06
1.47842e-06
1.47794e-06
1.47565e-06
1.47565e-06
1.47565e-06
1.47803e-06
1.47835e-06
1.47859e-06
1.47986e-06
1.47966e-06
1.47851e-06
1.47843e-06
1.47837e-06
1.4784e-06
1.47849e-06
1.47862e-06
1.47986e-06
1.47979e-06
1.47982e-06
1.47975e-06
1.47976e-06
1.47985e-06
1.46603e-06
1.4646e-06
1.4645e-06
1.46455e-06
1.46588e-06
1.46604e-06
1.46611e-06
1.4648e-06
1.46418e-06
1.46195e-06
1.46195e-06
1.46195e-06
1.46426e-06
1.46473e-06
1.46595e-06
1.4648e-06
1.46415e-06
1.46195e-06
1.46195e-06
1.46195e-06
1.46195e-06
1.46195e-06
1.46422e-06
1.46472e-06
1.46596e-06
1.46603e-06
1.46418e-06
1.46195e-06
1.46195e-06
1.46195e-06
1.46195e-06
1.46195e-06
1.46195e-06
1.46195e-06
1.46424e-06
1.46481e-06
1.46609e-06
1.4646e-06
1.46195e-06
1.46195e-06
1.46195e-06
1.46195e-06
1.46195e-06
1.46195e-06
1.46195e-06
1.46195e-06
1.46195e-06
1.46473e-06
1.46612e-06
1.4645e-06
1.46195e-06
1.46195e-06
1.46195e-06
1.46195e-06
1.46195e-06
1.46195e-06
1.46195e-06
1.46195e-06
1.46195e-06
1.46467e-06
1.46605e-06
1.46455e-06
1.46195e-06
1.46195e-06
1.46195e-06
1.46195e-06
1.46195e-06
1.46195e-06
1.46195e-06
1.46195e-06
1.46195e-06
1.4647e-06
1.46606e-06
1.46588e-06
1.46426e-06
1.46195e-06
1.46195e-06
1.46195e-06
1.46195e-06
1.46195e-06
1.46195e-06
1.46195e-06
1.46433e-06
1.46479e-06
1.46615e-06
1.46604e-06
1.46473e-06
1.46422e-06
1.46195e-06
1.46195e-06
1.46195e-06
1.46195e-06
1.46195e-06
1.46429e-06
1.46465e-06
1.46492e-06
1.46595e-06
1.46472e-06
1.46424e-06
1.46195e-06
1.46195e-06
1.46195e-06
1.46433e-06
1.46465e-06
1.46489e-06
1.46616e-06
1.46596e-06
1.46481e-06
1.46473e-06
1.46467e-06
1.4647e-06
1.46479e-06
1.46492e-06
1.46616e-06
1.46609e-06
1.46612e-06
1.46605e-06
1.46606e-06
1.46615e-06
1.45233e-06
1.4509e-06
1.4508e-06
1.45085e-06
1.45218e-06
1.45234e-06
1.45241e-06
1.4511e-06
1.45048e-06
1.44825e-06
1.44825e-06
1.44825e-06
1.45056e-06
1.45103e-06
1.45225e-06
1.4511e-06
1.45045e-06
1.44825e-06
1.44825e-06
1.44825e-06
1.44825e-06
1.44825e-06
1.45052e-06
1.45102e-06
1.45226e-06
1.45233e-06
1.45048e-06
1.44825e-06
1.44825e-06
1.44825e-06
1.44825e-06
1.44825e-06
1.44825e-06
1.44825e-06
1.45054e-06
1.45111e-06
1.45239e-06
1.4509e-06
1.44825e-06
1.44825e-06
1.44825e-06
1.44825e-06
1.44825e-06
1.44825e-06
1.44825e-06
1.44825e-06
1.44825e-06
1.45103e-06
1.45242e-06
1.4508e-06
1.44825e-06
1.44825e-06
1.44825e-06
1.44825e-06
1.44825e-06
1.44825e-06
1.44825e-06
1.44825e-06
1.44825e-06
1.45097e-06
1.45236e-06
1.45085e-06
1.44825e-06
1.44825e-06
1.44825e-06
1.44825e-06
1.44825e-06
1.44825e-06
1.44825e-06
1.44825e-06
1.44825e-06
1.451e-06
1.45236e-06
1.45218e-06
1.45056e-06
1.44825e-06
1.44825e-06
1.44825e-06
1.44825e-06
1.44825e-06
1.44825e-06
1.44825e-06
1.45063e-06
1.45109e-06
1.45245e-06
1.45234e-06
1.45103e-06
1.45052e-06
1.44825e-06
1.44825e-06
1.44825e-06
1.44825e-06
1.44825e-06
1.45059e-06
1.45095e-06
1.45122e-06
1.45225e-06
1.45102e-06
1.45054e-06
1.44825e-06
1.44825e-06
1.44825e-06
1.45063e-06
1.45095e-06
1.45119e-06
1.45246e-06
1.45226e-06
1.45111e-06
1.45103e-06
1.45097e-06
1.451e-06
1.45109e-06
1.45122e-06
1.45246e-06
1.45239e-06
1.45242e-06
1.45236e-06
1.45236e-06
1.45245e-06
1.43863e-06
1.4372e-06
1.4371e-06
1.43715e-06
1.43849e-06
1.43864e-06
1.43871e-06
1.4374e-06
1.43678e-06
1.43455e-06
1.43455e-06
1.43455e-06
1.43686e-06
1.43733e-06
1.43855e-06
1.4374e-06
1.43675e-06
1.43455e-06
1.43455e-06
1.43455e-06
1.43455e-06
1.43455e-06
1.43682e-06
1.43732e-06
1.43856e-06
1.43863e-06
1.43678e-06
1.43455e-06
1.43455e-06
1.43455e-06
1.43455e-06
1.43455e-06
1.43455e-06
1.43455e-06
1.43684e-06
1.43742e-06
1.43869e-06
1.4372e-06
1.43455e-06
1.43455e-06
1.43455e-06
1.43455e-06
1.43455e-06
1.43455e-06
1.43455e-06
1.43455e-06
1.43455e-06
1.43733e-06
1.43872e-06
1.4371e-06
1.43455e-06
1.43455e-06
1.43455e-06
1.43455e-06
1.43455e-06
1.43455e-06
1.43455e-06
1.43455e-06
1.43455e-06
1.43727e-06
1.43866e-06
1.43715e-06
1.43455e-06
1.43455e-06
1.43455e-06
1.43455e-06
1.43455e-06
1.43455e-06
1.43455e-06
1.43455e-06
1.43455e-06
1.4373e-06
1.43866e-06
1.43849e-06
1.43686e-06
1.43455e-06
1.43455e-06
1.43455e-06
1.43455e-06
1.43455e-06
1.43455e-06
1.43455e-06
1.43693e-06
1.43739e-06
1.43875e-06
1.43864e-06
1.43733e-06
1.43682e-06
1.43455e-06
1.43455e-06
1.43455e-06
1.43455e-06
1.43455e-06
1.43689e-06
1.43725e-06
1.43752e-06
1.43855e-06
1.43732e-06
1.43684e-06
1.43455e-06
1.43455e-06
1.43455e-06
1.43693e-06
1.43725e-06
1.43749e-06
1.43876e-06
1.43856e-06
1.43742e-06
1.43733e-06
1.43727e-06
1.4373e-06
1.43739e-06
1.43752e-06
1.43876e-06
1.43869e-06
1.43872e-06
1.43866e-06
1.43866e-06
1.43875e-06
1.42493e-06
1.4235e-06
1.4234e-06
1.42346e-06
1.42479e-06
1.42494e-06
1.42501e-06
1.4237e-06
1.42308e-06
1.42085e-06
1.42085e-06
1.42085e-06
1.42316e-06
1.42363e-06
1.42485e-06
1.4237e-06
1.42305e-06
1.42085e-06
1.42085e-06
1.42085e-06
1.42085e-06
1.42085e-06
1.42312e-06
1.42362e-06
1.42486e-06
1.42493e-06
1.42308e-06
1.42085e-06
1.42085e-06
1.42085e-06
1.42085e-06
1.42085e-06
1.42085e-06
1.42085e-06
1.42314e-06
1.42372e-06
1.42499e-06
1.4235e-06
1.42085e-06
1.42085e-06
1.42085e-06
1.42085e-06
1.42085e-06
1.42085e-06
1.42085e-06
1.42085e-06
1.42085e-06
1.42363e-06
1.42502e-06
1.4234e-06
1.42085e-06
1.42085e-06
1.42085e-06
1.42085e-06
1.42085e-06
1.42085e-06
1.42085e-06
1.42085e-06
1.42085e-06
1.42357e-06
1.42496e-06
1.42346e-06
1.42085e-06
1.42085e-06
1.42085e-06
1.42085e-06
1.42085e-06
1.42085e-06
1.42085e-06
1.42085e-06
1.42085e-06
1.4236e-06
1.42496e-06
1.42479e-06
1.42316e-06
1.42085e-06
1.42085e-06
1.42085e-06
1.42085e-06
1.42085e-06
1.42085e-06
1.42085e-06
1.42323e-06
1.4237e-06
1.42505e-06
1.42494e-06
1.42363e-06
1.42312e-06
1.42085e-06
1.42085e-06
1.42085e-06
1.42085e-06
1.42085e-06
1.42319e-06
1.42355e-06
1.42382e-06
1.42485e-06
1.42362e-06
1.42314e-06
1.42085e-06
1.42085e-06
1.42085e-06
1.42323e-06
1.42355e-06
1.42379e-06
1.42506e-06
1.42486e-06
1.42372e-06
1.42363e-06
1.42357e-06
1.4236e-06
1.4237e-06
1.42382e-06
1.42506e-06
1.42499e-06
1.42502e-06
1.42496e-06
1.42496e-06
1.42505e-06
1.41123e-06
1.4098e-06
1.40971e-06
1.40976e-06
1.41109e-06
1.41124e-06
1.41131e-06
1.41e-06
1.40938e-06
1.40715e-06
1.40715e-06
1.40715e-06
1.40946e-06
1.40993e-06
1.41115e-06
1.41e-06
1.40935e-06
1.40715e-06
1.40715e-06
1.40715e-06
1.40715e-06
1.40715e-06
1.40942e-06
1.40992e-06
1.41116e-06
1.41123e-06
1.40938e-06
1.40715e-06
1.40715e-06
1.40715e-06
1.40715e-06
1.40715e-06
1.40715e-06
1.40715e-06
1.40944e-06
1.41002e-06
1.4113e-06
1.4098e-06
1.40715e-06
1.40715e-06
1.40715e-06
1.40715e-06
1.40715e-06
1.40715e-06
1.40715e-06
1.40715e-06
1.40715e-06
1.40993e-06
1.41132e-06
1.40971e-06
1.40715e-06
1.40715e-06
1.40715e-06
1.40715e-06
1.40715e-06
1.40715e-06
1.40715e-06
1.40715e-06
1.40715e-06
1.40987e-06
1.41126e-06
1.40976e-06
1.40715e-06
1.40715e-06
1.40715e-06
1.40715e-06
1.40715e-06
1.40715e-06
1.40715e-06
1.40715e-06
1.40715e-06
1.4099e-06
1.41126e-06
1.41109e-06
1.40946e-06
1.40715e-06
1.40715e-06
1.40715e-06
1.40715e-06
1.40715e-06
1.40715e-06
1.40715e-06
1.40953e-06
1.41e-06
1.41135e-06
1.41124e-06
1.40993e-06
1.40942e-06
1.40715e-06
1.40715e-06
1.40715e-06
1.40715e-06
1.40715e-06
1.40949e-06
1.40985e-06
1.41013e-06
1.41115e-06
1.40992e-06
1.40944e-06
1.40715e-06
1.40715e-06
1.40715e-06
1.40953e-06
1.40985e-06
1.41009e-06
1.41137e-06
1.41116e-06
1.41002e-06
1.40993e-06
1.40987e-06
1.4099e-06
1.41e-06
1.41013e-06
1.41137e-06
1.4113e-06
1.41132e-06
1.41126e-06
1.41126e-06
1.41135e-06
1.39753e-06
1.3961e-06
1.39601e-06
1.39606e-06
1.39739e-06
1.39754e-06
1.39761e-06
1.3963e-06
1.39568e-06
1.39345e-06
1.39345e-06
1.39345e-06
1.39576e-06
1.39623e-06
1.39745e-06
1.3963e-06
1.39565e-06
1.39345e-06
1.39345e-06
1.39345e-06
1.39345e-06
1.39345e-06
1.39572e-06
1.39622e-06
1.39746e-06
1.39753e-06
1.39568e-06
1.39345e-06
1.39345e-06
1.39345e-06
1.39345e-06
1.39345e-06
1.39345e-06
1.39345e-06
1.39574e-06
1.39632e-06
1.3976e-06
1.3961e-06
1.39345e-06
1.39345e-06
1.39345e-06
1.39345e-06
1.39345e-06
1.39345e-06
1.39345e-06
1.39345e-06
1.39345e-06
1.39623e-06
1.39762e-06
1.39601e-06
1.39345e-06
1.39345e-06
1.39345e-06
1.39345e-06
1.39345e-06
1.39345e-06
1.39345e-06
1.39345e-06
1.39345e-06
1.39617e-06
1.39756e-06
1.39606e-06
1.39345e-06
1.39345e-06
1.39345e-06
1.39345e-06
1.39345e-06
1.39345e-06
1.39345e-06
1.39345e-06
1.39345e-06
1.3962e-06
1.39756e-06
1.39739e-06
1.39576e-06
1.39345e-06
1.39345e-06
1.39345e-06
1.39345e-06
1.39345e-06
1.39345e-06
1.39345e-06
1.39583e-06
1.3963e-06
1.39765e-06
1.39754e-06
1.39623e-06
1.39572e-06
1.39345e-06
1.39345e-06
1.39345e-06
1.39345e-06
1.39345e-06
1.39579e-06
1.39615e-06
1.39643e-06
1.39745e-06
1.39622e-06
1.39574e-06
1.39345e-06
1.39345e-06
1.39345e-06
1.39583e-06
1.39615e-06
1.39639e-06
1.39767e-06
1.39746e-06
1.39632e-06
1.39623e-06
1.39617e-06
1.3962e-06
1.3963e-06
1.39643e-06
1.39767e-06
1.3976e-06
1.39762e-06
1.39756e-06
1.39756e-06
1.39765e-06
1.38383e-06
1.3824e-06
1.38231e-06
1.38236e-06
1.38369e-06
1.38384e-06
1.38391e-06
1.3826e-06
1.38198e-06
1.37975e-06
1.37975e-06
1.37975e-06
1.38206e-06
1.38253e-06
1.38375e-06
1.3826e-06
1.38195e-06
1.37975e-06
1.37975e-06
1.37975e-06
1.37975e-06
1.37975e-06
1.38202e-06
1.38252e-06
1.38376e-06
1.38383e-06
1.38198e-06
1.37975e-06
1.37975e-06
1.37975e-06
1.37975e-06
1.37975e-06
1.37975e-06
1.37975e-06
1.38204e-06
1.38262e-06
1.3839e-06
1.3824e-06
1.37975e-06
1.37975e-06
1.37975e-06
1.37975e-06
1.37975e-06
1.37975e-06
1.37975e-06
1.37975e-06
1.37975e-06
1.38253e-06
1.38392e-06
1.38231e-06
1.37975e-06
1.37975e-06
1.37975e-06
1.37975e-06
1.37975e-06
1.37975e-06
1.37975e-06
1.37975e-06
1.37975e-06
1.38247e-06
1.38386e-06
1.38236e-06
1.37975e-06
1.37975e-06
1.37975e-06
1.37975e-06
1.37975e-06
1.37975e-06
1.37975e-06
1.37975e-06
1.37975e-06
1.3825e-06
1.38386e-06
1.38369e-06
1.38206e-06
1.37975e-06
1.37975e-06
1.37975e-06
1.37975e-06
1.37975e-06
1.37975e-06
1.37975e-06
1.38213e-06
1.3826e-06
1.38395e-06
1.38384e-06
1.38253e-06
1.38202e-06
1.37975e-06
1.37975e-06
1.37975e-06
1.37975e-06
1.37975e-06
1.38209e-06
1.38245e-06
1.38273e-06
1.38375e-06
1.38252e-06
1.38204e-06
1.37975e-06
1.37975e-06
1.37975e-06
1.38213e-06
1.38245e-06
1.38269e-06
1.38397e-06
1.38376e-06
1.38262e-06
1.38253e-06
1.38247e-06
1.3825e-06
1.3826e-06
1.38273e-06
1.38397e-06
1.3839e-06
1.38392e-06
1.38386e-06
1.38386e-06
1.38395e-06
1.37013e-06
1.3687e-06
1.36861e-06
1.36866e-06
1.36999e-06
1.37014e-06
1.37021e-06
1.3689e-06
1.36828e-06
1.36605e-06
1.36605e-06
1.36605e-06
1.36836e-06
1.36883e-06
1.37005e-06
1.3689e-06
1.36825e-06
1.36605e-06
1.36605e-06
1.36605e-06
1.36605e-06
1.36605e-06
1.36832e-06
1.36882e-06
1.37006e-06
1.37013e-06
1.36828e-06
1.36605e-06
1.36605e-06
1.36605e-06
1.36605e-06
1.36605e-06
1.36605e-06
1.36605e-06
1.36834e-06
1.36892e-06
1.3702e-06
1.3687e-06
1.36605e-06
1.36605e-06
1.36605e-06
1.36605e-06
1.36605e-06
1.36605e-06
1.36605e-06
1.36605e-06
1.36605e-06
1.36883e-06
1.37022e-06
1.36861e-06
1.36605e-06
1.36605e-06
1.36605e-06
1.36605e-06
1.36605e-06
1.36605e-06
1.36605e-06
1.36605e-06
1.36605e-06
1.36877e-06
1.37016e-06
1.36866e-06
1.36605e-06
1.36605e-06
1.36605e-06
1.36605e-06
1.36605e-06
1.36605e-06
1.36605e-06
1.36605e-06
1.36605e-06
1.3688e-06
1.37016e-06
1.36999e-06
1.36836e-06
1.36605e-06
1.36605e-06
1.36605e-06
1.36605e-06
1.36605e-06
1.36605e-06
1.36605e-06
1.36843e-06
1.3689e-06
1.37025e-06
1.37014e-06
1.36883e-06
1.36832e-06
1.36605e-06
1.36605e-06
1.36605e-06
1.36605e-06
1.36605e-06
1.36839e-06
1.36875e-06
1.36903e-06
1.37005e-06
1.36882e-06
1.36834e-06
1.36605e-06
1.36605e-06
1.36605e-06
1.36843e-06
1.36875e-06
1.36899e-06
1.37027e-06
1.37006e-06
1.36892e-06
1.36883e-06
1.36877e-06
1.3688e-06
1.3689e-06
1.36903e-06
1.37027e-06
1.3702e-06
1.37022e-06
1.37016e-06
1.37016e-06
1.37025e-06
1.35643e-06
1.355e-06
1.35491e-06
1.35496e-06
1.35629e-06
1.35644e-06
1.35651e-06
1.3552e-06
1.35458e-06
1.35235e-06
1.35235e-06
1.35235e-06
1.35467e-06
1.35513e-06
1.35635e-06
1.3552e-06
1.35455e-06
1.35235e-06
1.35235e-06
1.35235e-06
1.35235e-06
1.35235e-06
1.35462e-06
1.35512e-06
1.35636e-06
1.35643e-06
1.35458e-06
1.35235e-06
1.35235e-06
1.35235e-06
1.35235e-06
1.35235e-06
1.35235e-06
1.35235e-06
1.35464e-06
1.35522e-06
1.3565e-06
1.355e-06
1.35235e-06
1.35235e-06
1.35235e-06
1.35235e-06
1.35235e-06
1.35235e-06
1.35235e-06
1.35235e-06
1.35235e-06
1.35513e-06
1.35652e-06
1.35491e-06
1.35235e-06
1.35235e-06
1.35235e-06
1.35235e-06
1.35235e-06
1.35235e-06
1.35235e-06
1.35235e-06
1.35235e-06
1.35507e-06
1.35646e-06
1.35496e-06
1.35235e-06
1.35235e-06
1.35235e-06