/*--------------------------------*- C++ -*----------------------------------*\
| =========                 |                                                 |
| \\      /  F ield         | OpenFOAM: The Open Source CFD Toolbox           |
|  \\    /   O peration     | Version:  v2012                                 |
|   \\  /    A nd           | Website:  www.openfoam.com                      |
|    \\/     M anipulation  |                                                 |
\*---------------------------------------------------------------------------*/
FoamFile
{
    version     2.0;
    format      ascii;
    class       volScalarField;
    location    "4";
    object      p;
}
// * * * * * * * * * * * * * * * * * * * * * * * * * * * * * * * * * * * * * //

dimensions      [0 2 -2 0 0 0 0];


internalField   nonuniform List<scalar> 
292667
(
2.07959e-06
2.05612e-06
2.054e-06
2.05417e-06
2.05735e-06
2.08062e-06
2.05729e-06
2.05017e-06
2.0464e-06
2.04494e-06
2.04514e-06
2.04711e-06
2.05162e-06
2.05965e-06
2.05729e-06
2.04851e-06
2.04364e-06
2.04106e-06
2.03999e-06
2.04014e-06
2.04155e-06
2.04462e-06
2.0503e-06
2.06029e-06
2.0796e-06
2.05017e-06
2.04364e-06
2.04e-06
2.03799e-06
2.03714e-06
2.03726e-06
2.03838e-06
2.04073e-06
2.04495e-06
2.05254e-06
2.08242e-06
2.05612e-06
2.0464e-06
2.04106e-06
2.03799e-06
2.03628e-06
2.03554e-06
2.03564e-06
2.03661e-06
2.03861e-06
2.04213e-06
2.04834e-06
2.06596e-06
2.05401e-06
2.04494e-06
2.03999e-06
2.03714e-06
2.03554e-06
2.03484e-06
2.03494e-06
2.03584e-06
2.03772e-06
2.04097e-06
2.04672e-06
2.0612e-06
2.05417e-06
2.04514e-06
2.04014e-06
2.03726e-06
2.03564e-06
2.03494e-06
2.03504e-06
2.03595e-06
2.03784e-06
2.04113e-06
2.04693e-06
2.06101e-06
2.05735e-06
2.04711e-06
2.04155e-06
2.03838e-06
2.03661e-06
2.03585e-06
2.03595e-06
2.03694e-06
2.03901e-06
2.04265e-06
2.04911e-06
2.06683e-06
2.08062e-06
2.05162e-06
2.04462e-06
2.04073e-06
2.03861e-06
2.03772e-06
2.03784e-06
2.03901e-06
2.0415e-06
2.04599e-06
2.05406e-06
2.08338e-06
2.05965e-06
2.0503e-06
2.04495e-06
2.04213e-06
2.04097e-06
2.04113e-06
2.04265e-06
2.04599e-06
2.05218e-06
2.06758e-06
2.06029e-06
2.05254e-06
2.04834e-06
2.04672e-06
2.04693e-06
2.04911e-06
2.05406e-06
2.06759e-06
2.08242e-06
2.06596e-06
2.0612e-06
2.06101e-06
2.06683e-06
2.08338e-06
2.0217e-06
2.01956e-06
2.01958e-06
2.01961e-06
2.02121e-06
2.02153e-06
2.02174e-06
2.02021e-06
2.01957e-06
2.01698e-06
2.01695e-06
2.01699e-06
2.01933e-06
2.01993e-06
2.02143e-06
2.02021e-06
2.01952e-06
2.01689e-06
2.0169e-06
2.01689e-06
2.0169e-06
2.01689e-06
2.01916e-06
2.01993e-06
2.02142e-06
2.0217e-06
2.01957e-06
2.01689e-06
2.01686e-06
2.01685e-06
2.01684e-06
2.01685e-06
2.01686e-06
2.01689e-06
2.01919e-06
2.01995e-06
2.02182e-06
2.01956e-06
2.01698e-06
2.0169e-06
2.01685e-06
2.01681e-06
2.01679e-06
2.01681e-06
2.01684e-06
2.0169e-06
2.01698e-06
2.01975e-06
2.02124e-06
2.01958e-06
2.01695e-06
2.01689e-06
2.01684e-06
2.01679e-06
2.01678e-06
2.01679e-06
2.01684e-06
2.01689e-06
2.01695e-06
2.0194e-06
2.02096e-06
2.01961e-06
2.01699e-06
2.0169e-06
2.01685e-06
2.01681e-06
2.01679e-06
2.01681e-06
2.01684e-06
2.0169e-06
2.01699e-06
2.01953e-06
2.02098e-06
2.02121e-06
2.01933e-06
2.01689e-06
2.01686e-06
2.01685e-06
2.01684e-06
2.01685e-06
2.01686e-06
2.01689e-06
2.01887e-06
2.01982e-06
2.02146e-06
2.02153e-06
2.01993e-06
2.01916e-06
2.01689e-06
2.0169e-06
2.01689e-06
2.0169e-06
2.01689e-06
2.01877e-06
2.01962e-06
2.0201e-06
2.02143e-06
2.01993e-06
2.01919e-06
2.01698e-06
2.01695e-06
2.01699e-06
2.01887e-06
2.01962e-06
2.02017e-06
2.02166e-06
2.02142e-06
2.01995e-06
2.01975e-06
2.0194e-06
2.01953e-06
2.01983e-06
2.0201e-06
2.02166e-06
2.02182e-06
2.02124e-06
2.02096e-06
2.02098e-06
2.02147e-06
2.00435e-06
2.00257e-06
2.00249e-06
2.00253e-06
2.00406e-06
2.00436e-06
2.00456e-06
2.0029e-06
2.00228e-06
1.99943e-06
1.99943e-06
1.99943e-06
2.00209e-06
2.00266e-06
2.00425e-06
2.0029e-06
2.00226e-06
1.99952e-06
1.99947e-06
1.99947e-06
1.99947e-06
1.99952e-06
2.00199e-06
2.00266e-06
2.00424e-06
2.00435e-06
2.00228e-06
1.99952e-06
1.9995e-06
1.9995e-06
1.9995e-06
1.9995e-06
1.9995e-06
1.99952e-06
2.00199e-06
2.00271e-06
2.00441e-06
2.00257e-06
1.99943e-06
1.99947e-06
1.9995e-06
1.99951e-06
1.99951e-06
1.99951e-06
1.9995e-06
1.99947e-06
1.99943e-06
2.00239e-06
2.00426e-06
2.00249e-06
1.99943e-06
1.99947e-06
1.9995e-06
1.99951e-06
1.99951e-06
1.99951e-06
1.9995e-06
1.99947e-06
1.99943e-06
2.00223e-06
2.0041e-06
2.00253e-06
1.99943e-06
1.99947e-06
1.9995e-06
1.99951e-06
1.99951e-06
1.99951e-06
1.9995e-06
1.99947e-06
1.99944e-06
2.00228e-06
2.00411e-06
2.00406e-06
2.00209e-06
1.99952e-06
1.9995e-06
1.9995e-06
1.9995e-06
1.9995e-06
1.9995e-06
1.99952e-06
2.00172e-06
2.00257e-06
2.00435e-06
2.00436e-06
2.00266e-06
2.00199e-06
1.99952e-06
1.99947e-06
1.99947e-06
1.99947e-06
1.99952e-06
2.00166e-06
2.0024e-06
2.00288e-06
2.00425e-06
2.00266e-06
2.00199e-06
1.99943e-06
1.99943e-06
1.99943e-06
2.00172e-06
2.0024e-06
2.0029e-06
2.00447e-06
2.00424e-06
2.00271e-06
2.00239e-06
2.00223e-06
2.00228e-06
2.00257e-06
2.00288e-06
2.00447e-06
2.00441e-06
2.00426e-06
2.0041e-06
2.00411e-06
2.00435e-06
1.98732e-06
1.98555e-06
1.98547e-06
1.9855e-06
1.98704e-06
1.98732e-06
1.98749e-06
1.9858e-06
1.98516e-06
1.98224e-06
1.98224e-06
1.98224e-06
1.985e-06
1.98557e-06
1.98717e-06
1.9858e-06
1.98513e-06
1.98228e-06
1.98226e-06
1.98226e-06
1.98226e-06
1.98227e-06
1.98488e-06
1.98555e-06
1.98717e-06
1.98732e-06
1.98516e-06
1.98228e-06
1.98227e-06
1.98228e-06
1.98229e-06
1.98228e-06
1.98227e-06
1.98228e-06
1.98489e-06
1.98565e-06
1.98738e-06
1.98555e-06
1.98224e-06
1.98226e-06
1.98228e-06
1.9823e-06
1.9823e-06
1.9823e-06
1.98228e-06
1.98226e-06
1.98224e-06
1.98536e-06
1.98726e-06
1.98547e-06
1.98224e-06
1.98226e-06
1.98229e-06
1.9823e-06
1.9823e-06
1.9823e-06
1.98229e-06
1.98226e-06
1.98224e-06
1.98526e-06
1.98714e-06
1.9855e-06
1.98224e-06
1.98226e-06
1.98228e-06
1.9823e-06
1.9823e-06
1.9823e-06
1.98228e-06
1.98226e-06
1.98224e-06
1.98529e-06
1.98714e-06
1.98704e-06
1.985e-06
1.98227e-06
1.98227e-06
1.98228e-06
1.98229e-06
1.98228e-06
1.98227e-06
1.98227e-06
1.98464e-06
1.98551e-06
1.98734e-06
1.98732e-06
1.98557e-06
1.98488e-06
1.98228e-06
1.98226e-06
1.98226e-06
1.98226e-06
1.98227e-06
1.98458e-06
1.9853e-06
1.98581e-06
1.98717e-06
1.98555e-06
1.98489e-06
1.98224e-06
1.98224e-06
1.98224e-06
1.98463e-06
1.9853e-06
1.98579e-06
1.98741e-06
1.98717e-06
1.98565e-06
1.98536e-06
1.98526e-06
1.98529e-06
1.98551e-06
1.98581e-06
1.98741e-06
1.98738e-06
1.98726e-06
1.98714e-06
1.98714e-06
1.98734e-06
1.97026e-06
1.96848e-06
1.96839e-06
1.96843e-06
1.96998e-06
1.97026e-06
1.97042e-06
1.96872e-06
1.96807e-06
1.9651e-06
1.9651e-06
1.9651e-06
1.96791e-06
1.96849e-06
1.9701e-06
1.96872e-06
1.96802e-06
1.96512e-06
1.96512e-06
1.96512e-06
1.96512e-06
1.96512e-06
1.9678e-06
1.96847e-06
1.97011e-06
1.97026e-06
1.96807e-06
1.96512e-06
1.96513e-06
1.96514e-06
1.96514e-06
1.96514e-06
1.96513e-06
1.96512e-06
1.96781e-06
1.96857e-06
1.97032e-06
1.96848e-06
1.9651e-06
1.96512e-06
1.96514e-06
1.96515e-06
1.96515e-06
1.96515e-06
1.96514e-06
1.96512e-06
1.9651e-06
1.9683e-06
1.9702e-06
1.96839e-06
1.9651e-06
1.96512e-06
1.96514e-06
1.96515e-06
1.96515e-06
1.96515e-06
1.96514e-06
1.96512e-06
1.9651e-06
1.96821e-06
1.97009e-06
1.96843e-06
1.9651e-06
1.96512e-06
1.96514e-06
1.96515e-06
1.96515e-06
1.96515e-06
1.96514e-06
1.96512e-06
1.9651e-06
1.96824e-06
1.97009e-06
1.96998e-06
1.96791e-06
1.96512e-06
1.96513e-06
1.96514e-06
1.96514e-06
1.96514e-06
1.96513e-06
1.96512e-06
1.96757e-06
1.96844e-06
1.97028e-06
1.97026e-06
1.96849e-06
1.9678e-06
1.96512e-06
1.96512e-06
1.96512e-06
1.96512e-06
1.96512e-06
1.96752e-06
1.96822e-06
1.96874e-06
1.9701e-06
1.96847e-06
1.96781e-06
1.9651e-06
1.9651e-06
1.9651e-06
1.96757e-06
1.96822e-06
1.96871e-06
1.97035e-06
1.97011e-06
1.96857e-06
1.9683e-06
1.96821e-06
1.96824e-06
1.96844e-06
1.96874e-06
1.97035e-06
1.97032e-06
1.9702e-06
1.97009e-06
1.97009e-06
1.97028e-06
1.95318e-06
1.9514e-06
1.9513e-06
1.95134e-06
1.9529e-06
1.95318e-06
1.95334e-06
1.95164e-06
1.95098e-06
1.948e-06
1.948e-06
1.948e-06
1.95082e-06
1.95141e-06
1.95302e-06
1.95164e-06
1.95093e-06
1.94801e-06
1.948e-06
1.94801e-06
1.948e-06
1.94801e-06
1.95071e-06
1.95139e-06
1.95303e-06
1.95318e-06
1.95098e-06
1.94801e-06
1.94801e-06
1.94802e-06
1.94802e-06
1.94802e-06
1.94801e-06
1.94801e-06
1.95073e-06
1.95149e-06
1.95325e-06
1.95139e-06
1.948e-06
1.948e-06
1.94802e-06
1.94803e-06
1.94803e-06
1.94803e-06
1.94802e-06
1.948e-06
1.94799e-06
1.95122e-06
1.95312e-06
1.9513e-06
1.948e-06
1.94801e-06
1.94802e-06
1.94803e-06
1.94803e-06
1.94803e-06
1.94802e-06
1.94801e-06
1.948e-06
1.95114e-06
1.95301e-06
1.95134e-06
1.94799e-06
1.948e-06
1.94802e-06
1.94803e-06
1.94803e-06
1.94803e-06
1.94802e-06
1.948e-06
1.94799e-06
1.95116e-06
1.95301e-06
1.9529e-06
1.95082e-06
1.94801e-06
1.94801e-06
1.94802e-06
1.94802e-06
1.94802e-06
1.94801e-06
1.94801e-06
1.95048e-06
1.95136e-06
1.9532e-06
1.95318e-06
1.95141e-06
1.95071e-06
1.94801e-06
1.948e-06
1.94801e-06
1.948e-06
1.94801e-06
1.95045e-06
1.95114e-06
1.95166e-06
1.95302e-06
1.95139e-06
1.95073e-06
1.94799e-06
1.948e-06
1.94799e-06
1.95048e-06
1.95114e-06
1.95163e-06
1.95327e-06
1.95303e-06
1.95149e-06
1.95122e-06
1.95114e-06
1.95116e-06
1.95136e-06
1.95166e-06
1.95327e-06
1.95324e-06
1.95312e-06
1.95301e-06
1.95301e-06
1.9532e-06
1.9361e-06
1.93431e-06
1.93421e-06
1.93426e-06
1.93582e-06
1.9361e-06
1.93626e-06
1.93456e-06
1.9339e-06
1.9309e-06
1.9309e-06
1.9309e-06
1.93373e-06
1.93433e-06
1.93594e-06
1.93456e-06
1.93384e-06
1.93091e-06
1.93091e-06
1.93091e-06
1.93091e-06
1.9309e-06
1.93362e-06
1.93431e-06
1.93595e-06
1.9361e-06
1.93389e-06
1.93091e-06
1.93091e-06
1.93091e-06
1.93092e-06
1.93091e-06
1.93091e-06
1.9309e-06
1.93364e-06
1.93441e-06
1.93616e-06
1.93431e-06
1.9309e-06
1.93091e-06
1.93091e-06
1.93092e-06
1.93092e-06
1.93092e-06
1.93091e-06
1.93091e-06
1.9309e-06
1.93414e-06
1.93604e-06
1.93421e-06
1.9309e-06
1.93091e-06
1.93092e-06
1.93092e-06
1.93092e-06
1.93092e-06
1.93092e-06
1.93091e-06
1.9309e-06
1.93405e-06
1.93592e-06
1.93426e-06
1.9309e-06
1.93091e-06
1.93091e-06
1.93092e-06
1.93092e-06
1.93092e-06
1.93091e-06
1.93091e-06
1.9309e-06
1.93408e-06
1.93593e-06
1.93582e-06
1.93373e-06
1.9309e-06
1.93091e-06
1.93091e-06
1.93092e-06
1.93091e-06
1.93091e-06
1.9309e-06
1.9334e-06
1.93428e-06
1.93612e-06
1.9361e-06
1.93433e-06
1.93362e-06
1.93091e-06
1.93091e-06
1.93091e-06
1.93091e-06
1.9309e-06
1.93337e-06
1.93406e-06
1.93457e-06
1.93594e-06
1.93431e-06
1.93364e-06
1.9309e-06
1.9309e-06
1.9309e-06
1.9334e-06
1.93406e-06
1.93455e-06
1.93619e-06
1.93595e-06
1.93441e-06
1.93414e-06
1.93405e-06
1.93408e-06
1.93428e-06
1.93457e-06
1.93619e-06
1.93616e-06
1.93604e-06
1.93592e-06
1.93593e-06
1.93612e-06
1.91901e-06
1.91722e-06
1.91713e-06
1.91717e-06
1.91873e-06
1.91901e-06
1.91917e-06
1.91747e-06
1.91681e-06
1.91381e-06
1.91381e-06
1.91381e-06
1.91665e-06
1.91724e-06
1.91885e-06
1.91747e-06
1.91675e-06
1.91381e-06
1.91381e-06
1.91381e-06
1.91381e-06
1.91381e-06
1.91654e-06
1.91722e-06
1.91886e-06
1.91901e-06
1.91681e-06
1.91381e-06
1.91382e-06
1.91382e-06
1.91382e-06
1.91382e-06
1.91381e-06
1.91381e-06
1.91655e-06
1.91732e-06
1.91908e-06
1.91722e-06
1.91381e-06
1.91381e-06
1.91382e-06
1.91382e-06
1.91382e-06
1.91382e-06
1.91382e-06
1.91381e-06
1.91381e-06
1.91705e-06
1.91895e-06
1.91713e-06
1.91381e-06
1.91381e-06
1.91382e-06
1.91382e-06
1.91382e-06
1.91382e-06
1.91382e-06
1.91381e-06
1.91381e-06
1.91697e-06
1.91884e-06
1.91717e-06
1.91381e-06
1.91381e-06
1.91382e-06
1.91382e-06
1.91382e-06
1.91382e-06
1.91382e-06
1.91381e-06
1.91381e-06
1.91699e-06
1.91884e-06
1.91873e-06
1.91665e-06
1.91381e-06
1.91382e-06
1.91382e-06
1.91382e-06
1.91382e-06
1.91381e-06
1.91381e-06
1.91631e-06
1.91719e-06
1.91903e-06
1.91901e-06
1.91724e-06
1.91654e-06
1.91381e-06
1.91381e-06
1.91381e-06
1.91381e-06
1.91381e-06
1.91628e-06
1.91697e-06
1.91749e-06
1.91885e-06
1.91722e-06
1.91655e-06
1.91381e-06
1.91381e-06
1.91381e-06
1.91631e-06
1.91697e-06
1.91746e-06
1.9191e-06
1.91886e-06
1.91732e-06
1.91705e-06
1.91697e-06
1.91699e-06
1.91719e-06
1.91749e-06
1.9191e-06
1.91908e-06
1.91895e-06
1.91884e-06
1.91884e-06
1.91903e-06
1.90193e-06
1.90014e-06
1.90004e-06
1.90008e-06
1.90164e-06
1.90193e-06
1.90209e-06
1.90039e-06
1.89972e-06
1.89672e-06
1.89672e-06
1.89672e-06
1.89956e-06
1.90016e-06
1.90177e-06
1.90039e-06
1.89966e-06
1.89672e-06
1.89672e-06
1.89672e-06
1.89672e-06
1.89672e-06
1.89945e-06
1.90014e-06
1.90178e-06
1.90193e-06
1.89972e-06
1.89672e-06
1.89673e-06
1.89673e-06
1.89673e-06
1.89673e-06
1.89672e-06
1.89672e-06
1.89947e-06
1.90024e-06
1.90199e-06
1.90014e-06
1.89672e-06
1.89672e-06
1.89673e-06
1.89673e-06
1.89673e-06
1.89673e-06
1.89673e-06
1.89672e-06
1.89672e-06
1.89997e-06
1.90187e-06
1.90004e-06
1.89672e-06
1.89672e-06
1.89673e-06
1.89673e-06
1.89673e-06
1.89673e-06
1.89673e-06
1.89672e-06
1.89672e-06
1.89988e-06
1.90175e-06
1.90008e-06
1.89672e-06
1.89672e-06
1.89673e-06
1.89673e-06
1.89673e-06
1.89673e-06
1.89673e-06
1.89672e-06
1.89672e-06
1.89991e-06
1.90175e-06
1.90164e-06
1.89956e-06
1.89672e-06
1.89673e-06
1.89673e-06
1.89673e-06
1.89673e-06
1.89673e-06
1.89672e-06
1.89923e-06
1.90011e-06
1.90194e-06
1.90193e-06
1.90016e-06
1.89945e-06
1.89672e-06
1.89672e-06
1.89672e-06
1.89672e-06
1.89672e-06
1.8992e-06
1.89989e-06
1.9004e-06
1.90177e-06
1.90014e-06
1.89947e-06
1.89672e-06
1.89672e-06
1.89672e-06
1.89923e-06
1.89989e-06
1.90038e-06
1.90202e-06
1.90178e-06
1.90024e-06
1.89997e-06
1.89988e-06
1.89991e-06
1.90011e-06
1.9004e-06
1.90202e-06
1.90199e-06
1.90187e-06
1.90175e-06
1.90176e-06
1.90195e-06
1.88484e-06
1.88305e-06
1.88296e-06
1.883e-06
1.88456e-06
1.88484e-06
1.885e-06
1.8833e-06
1.88264e-06
1.87964e-06
1.87964e-06
1.87964e-06
1.88248e-06
1.88307e-06
1.88468e-06
1.8833e-06
1.88258e-06
1.87964e-06
1.87964e-06
1.87964e-06
1.87964e-06
1.87964e-06
1.88236e-06
1.88305e-06
1.88469e-06
1.88484e-06
1.88264e-06
1.87964e-06
1.87964e-06
1.87964e-06
1.87964e-06
1.87964e-06
1.87964e-06
1.87964e-06
1.88238e-06
1.88315e-06
1.88491e-06
1.88305e-06
1.87964e-06
1.87964e-06
1.87964e-06
1.87964e-06
1.87964e-06
1.87964e-06
1.87964e-06
1.87964e-06
1.87964e-06
1.88288e-06
1.88478e-06
1.88296e-06
1.87964e-06
1.87964e-06
1.87964e-06
1.87964e-06
1.87964e-06
1.87964e-06
1.87964e-06
1.87964e-06
1.87964e-06
1.8828e-06
1.88467e-06
1.883e-06
1.87964e-06
1.87964e-06
1.87964e-06
1.87964e-06
1.87964e-06
1.87964e-06
1.87964e-06
1.87964e-06
1.87964e-06
1.88282e-06
1.88467e-06
1.88456e-06
1.88248e-06
1.87964e-06
1.87964e-06
1.87964e-06
1.87964e-06
1.87964e-06
1.87964e-06
1.87964e-06
1.88214e-06
1.88302e-06
1.88486e-06
1.88484e-06
1.88307e-06
1.88236e-06
1.87964e-06
1.87964e-06
1.87964e-06
1.87964e-06
1.87964e-06
1.88211e-06
1.8828e-06
1.88332e-06
1.88468e-06
1.88305e-06
1.88238e-06
1.87964e-06
1.87964e-06
1.87964e-06
1.88214e-06
1.8828e-06
1.88329e-06
1.88493e-06
1.88469e-06
1.88315e-06
1.88288e-06
1.8828e-06
1.88282e-06
1.88302e-06
1.88332e-06
1.88493e-06
1.8849e-06
1.88478e-06
1.88467e-06
1.88467e-06
1.88486e-06
1.86776e-06
1.86597e-06
1.86587e-06
1.86591e-06
1.86747e-06
1.86776e-06
1.86792e-06
1.86622e-06
1.86555e-06
1.86255e-06
1.86255e-06
1.86255e-06
1.86539e-06
1.86599e-06
1.8676e-06
1.86622e-06
1.86549e-06
1.86255e-06
1.86255e-06
1.86255e-06
1.86255e-06
1.86255e-06
1.86528e-06
1.86597e-06
1.8676e-06
1.86776e-06
1.86555e-06
1.86255e-06
1.86255e-06
1.86255e-06
1.86255e-06
1.86255e-06
1.86255e-06
1.86255e-06
1.8653e-06
1.86607e-06
1.86782e-06
1.86597e-06
1.86255e-06
1.86255e-06
1.86255e-06
1.86255e-06
1.86255e-06
1.86255e-06
1.86255e-06
1.86255e-06
1.86255e-06
1.86579e-06
1.8677e-06
1.86587e-06
1.86255e-06
1.86255e-06
1.86255e-06
1.86255e-06
1.86255e-06
1.86255e-06
1.86255e-06
1.86255e-06
1.86255e-06
1.86571e-06
1.86758e-06
1.86591e-06
1.86255e-06
1.86255e-06
1.86255e-06
1.86255e-06
1.86255e-06
1.86255e-06
1.86255e-06
1.86255e-06
1.86255e-06
1.86574e-06
1.86758e-06
1.86747e-06
1.86539e-06
1.86255e-06
1.86255e-06
1.86255e-06
1.86255e-06
1.86255e-06
1.86255e-06
1.86255e-06
1.86506e-06
1.86594e-06
1.86777e-06
1.86776e-06
1.86599e-06
1.86528e-06
1.86255e-06
1.86255e-06
1.86255e-06
1.86255e-06
1.86255e-06
1.86502e-06
1.86572e-06
1.86623e-06
1.8676e-06
1.86597e-06
1.8653e-06
1.86255e-06
1.86255e-06
1.86255e-06
1.86506e-06
1.86572e-06
1.86621e-06
1.86785e-06
1.86761e-06
1.86607e-06
1.8658e-06
1.86571e-06
1.86574e-06
1.86594e-06
1.86623e-06
1.86785e-06
1.86782e-06
1.8677e-06
1.86758e-06
1.86758e-06
1.86777e-06
1.85067e-06
1.84888e-06
1.84878e-06
1.84883e-06
1.85039e-06
1.85067e-06
1.85083e-06
1.84913e-06
1.84846e-06
1.84546e-06
1.84546e-06
1.84546e-06
1.8483e-06
1.8489e-06
1.85051e-06
1.84913e-06
1.84841e-06
1.84546e-06
1.84546e-06
1.84546e-06
1.84546e-06
1.84546e-06
1.84819e-06
1.84888e-06
1.85052e-06
1.85067e-06
1.84847e-06
1.84546e-06
1.84546e-06
1.84546e-06
1.84546e-06
1.84546e-06
1.84546e-06
1.84546e-06
1.84821e-06
1.84898e-06
1.85073e-06
1.84888e-06
1.84546e-06
1.84546e-06
1.84546e-06
1.84547e-06
1.84547e-06
1.84547e-06
1.84546e-06
1.84546e-06
1.84546e-06
1.84871e-06
1.85061e-06
1.84878e-06
1.84546e-06
1.84546e-06
1.84546e-06
1.84547e-06
1.84547e-06
1.84546e-06
1.84546e-06
1.84546e-06
1.84546e-06
1.84863e-06
1.8505e-06
1.84883e-06
1.84546e-06
1.84546e-06
1.84546e-06
1.84546e-06
1.84547e-06
1.84546e-06
1.84546e-06
1.84546e-06
1.84546e-06
1.84865e-06
1.8505e-06
1.85039e-06
1.8483e-06
1.84546e-06
1.84546e-06
1.84546e-06
1.84546e-06
1.84546e-06
1.84546e-06
1.84546e-06
1.84797e-06
1.84885e-06
1.85069e-06
1.85067e-06
1.8489e-06
1.84819e-06
1.84546e-06
1.84546e-06
1.84546e-06
1.84546e-06
1.84546e-06
1.84794e-06
1.84863e-06
1.84915e-06
1.85051e-06
1.84888e-06
1.84821e-06
1.84546e-06
1.84546e-06
1.84546e-06
1.84797e-06
1.84863e-06
1.84912e-06
1.85076e-06
1.85052e-06
1.84898e-06
1.84871e-06
1.84863e-06
1.84865e-06
1.84885e-06
1.84915e-06
1.85076e-06
1.85073e-06
1.85061e-06
1.8505e-06
1.8505e-06
1.85069e-06
1.83359e-06
1.8318e-06
1.8317e-06
1.83174e-06
1.8333e-06
1.83359e-06
1.83375e-06
1.83205e-06
1.83138e-06
1.82838e-06
1.82838e-06
1.82838e-06
1.83122e-06
1.83182e-06
1.83343e-06
1.83205e-06
1.83132e-06
1.82838e-06
1.82838e-06
1.82838e-06
1.82838e-06
1.82838e-06
1.83111e-06
1.8318e-06
1.83343e-06
1.83358e-06
1.83138e-06
1.82838e-06
1.82838e-06
1.82838e-06
1.82838e-06
1.82838e-06
1.82838e-06
1.82838e-06
1.83113e-06
1.8319e-06
1.83365e-06
1.8318e-06
1.82838e-06
1.82838e-06
1.82838e-06
1.82838e-06
1.82838e-06
1.82838e-06
1.82838e-06
1.82838e-06
1.82838e-06
1.83162e-06
1.83353e-06
1.8317e-06
1.82838e-06
1.82838e-06
1.82838e-06
1.82838e-06
1.82838e-06
1.82838e-06
1.82838e-06
1.82838e-06
1.82838e-06
1.83154e-06
1.83341e-06
1.83174e-06
1.82838e-06
1.82838e-06
1.82838e-06
1.82838e-06
1.82838e-06
1.82838e-06
1.82838e-06
1.82838e-06
1.82838e-06
1.83157e-06
1.83341e-06
1.8333e-06
1.83122e-06
1.82838e-06
1.82838e-06
1.82838e-06
1.82838e-06
1.82838e-06
1.82838e-06
1.82838e-06
1.83088e-06
1.83177e-06
1.8336e-06
1.83359e-06
1.83182e-06
1.83111e-06
1.82838e-06
1.82838e-06
1.82838e-06
1.82838e-06
1.82838e-06
1.83085e-06
1.83155e-06
1.83206e-06
1.83343e-06
1.8318e-06
1.83113e-06
1.82838e-06
1.82838e-06
1.82838e-06
1.83088e-06
1.83155e-06
1.83204e-06
1.83368e-06
1.83343e-06
1.8319e-06
1.83162e-06
1.83155e-06
1.83157e-06
1.83177e-06
1.83206e-06
1.83368e-06
1.83365e-06
1.83353e-06
1.83341e-06
1.83341e-06
1.8336e-06
1.8165e-06
1.81471e-06
1.81461e-06
1.81466e-06
1.81622e-06
1.8165e-06
1.81666e-06
1.81496e-06
1.81429e-06
1.81129e-06
1.81129e-06
1.81129e-06
1.81413e-06
1.81473e-06
1.81634e-06
1.81496e-06
1.81424e-06
1.81129e-06
1.81129e-06
1.81129e-06
1.81129e-06
1.81129e-06
1.81402e-06
1.81471e-06
1.81635e-06
1.8165e-06
1.81429e-06
1.81129e-06
1.81129e-06
1.81129e-06
1.81129e-06
1.81129e-06
1.81129e-06
1.81129e-06
1.81404e-06
1.81481e-06
1.81656e-06
1.81471e-06
1.81129e-06
1.81129e-06
1.81129e-06
1.81129e-06
1.81129e-06
1.81129e-06
1.81129e-06
1.81129e-06
1.81129e-06
1.81454e-06
1.81644e-06
1.81461e-06
1.81129e-06
1.81129e-06
1.81129e-06
1.81129e-06
1.81129e-06
1.81129e-06
1.81129e-06
1.81129e-06
1.81129e-06
1.81446e-06
1.81633e-06
1.81466e-06
1.81129e-06
1.81129e-06
1.81129e-06
1.81129e-06
1.81129e-06
1.81129e-06
1.81129e-06
1.81129e-06
1.81129e-06
1.81448e-06
1.81633e-06
1.81622e-06
1.81413e-06
1.81129e-06
1.81129e-06
1.81129e-06
1.81129e-06
1.81129e-06
1.81129e-06
1.81129e-06
1.8138e-06
1.81468e-06
1.81652e-06
1.8165e-06
1.81473e-06
1.81402e-06
1.81129e-06
1.81129e-06
1.81129e-06
1.81129e-06
1.81129e-06
1.81377e-06
1.81446e-06
1.81498e-06
1.81634e-06
1.81471e-06
1.81404e-06
1.81129e-06
1.81129e-06
1.81129e-06
1.8138e-06
1.81446e-06
1.81495e-06
1.81659e-06
1.81635e-06
1.81481e-06
1.81454e-06
1.81446e-06
1.81448e-06
1.81468e-06
1.81498e-06
1.81659e-06
1.81656e-06
1.81644e-06
1.81633e-06
1.81633e-06
1.81652e-06
1.79941e-06
1.79762e-06
1.79753e-06
1.79757e-06
1.79913e-06
1.79942e-06
1.79958e-06
1.79787e-06
1.79721e-06
1.79421e-06
1.79421e-06
1.79421e-06
1.79705e-06
1.79765e-06
1.79926e-06
1.79787e-06
1.79715e-06
1.79421e-06
1.79421e-06
1.79421e-06
1.79421e-06
1.79421e-06
1.79694e-06
1.79763e-06
1.79926e-06
1.79941e-06
1.79721e-06
1.79421e-06
1.79421e-06
1.79421e-06
1.79421e-06
1.79421e-06
1.79421e-06
1.79421e-06
1.79696e-06
1.79772e-06
1.79948e-06
1.79762e-06
1.79421e-06
1.79421e-06
1.79421e-06
1.79421e-06
1.79421e-06
1.79421e-06
1.79421e-06
1.79421e-06
1.79421e-06
1.79745e-06
1.79935e-06
1.79753e-06
1.79421e-06
1.79421e-06
1.79421e-06
1.79421e-06
1.79421e-06
1.79421e-06
1.79421e-06
1.79421e-06
1.79421e-06
1.79737e-06
1.79924e-06
1.79757e-06
1.79421e-06
1.79421e-06
1.79421e-06
1.79421e-06
1.79421e-06
1.79421e-06
1.79421e-06
1.79421e-06
1.79421e-06
1.7974e-06
1.79924e-06
1.79913e-06
1.79705e-06
1.79421e-06
1.79421e-06
1.79421e-06
1.79421e-06
1.79421e-06
1.79421e-06
1.79421e-06
1.79671e-06
1.7976e-06
1.79943e-06
1.79942e-06
1.79765e-06
1.79694e-06
1.79421e-06
1.79421e-06
1.79421e-06
1.79421e-06
1.79421e-06
1.79668e-06
1.79738e-06
1.79789e-06
1.79926e-06
1.79763e-06
1.79696e-06
1.79421e-06
1.79421e-06
1.79421e-06
1.79671e-06
1.79738e-06
1.79787e-06
1.79951e-06
1.79926e-06
1.79772e-06
1.79745e-06
1.79737e-06
1.7974e-06
1.7976e-06
1.79789e-06
1.7995e-06
1.79948e-06
1.79935e-06
1.79924e-06
1.79924e-06
1.79943e-06
1.78233e-06
1.78054e-06
1.78044e-06
1.78049e-06
1.78205e-06
1.78233e-06
1.78249e-06
1.78079e-06
1.78012e-06
1.77712e-06
1.77712e-06
1.77712e-06
1.77996e-06
1.78056e-06
1.78217e-06
1.78079e-06
1.78007e-06
1.77712e-06
1.77712e-06
1.77712e-06
1.77712e-06
1.77712e-06
1.77985e-06
1.78054e-06
1.78218e-06
1.78233e-06
1.78012e-06
1.77712e-06
1.77712e-06
1.77712e-06
1.77712e-06
1.77712e-06
1.77712e-06
1.77712e-06
1.77987e-06
1.78064e-06
1.78239e-06
1.78054e-06
1.77712e-06
1.77712e-06
1.77712e-06
1.77712e-06
1.77712e-06
1.77712e-06
1.77712e-06
1.77712e-06
1.77712e-06
1.78037e-06
1.78227e-06
1.78044e-06
1.77712e-06
1.77712e-06
1.77712e-06
1.77712e-06
1.77712e-06
1.77712e-06
1.77712e-06
1.77712e-06
1.77712e-06
1.78029e-06
1.78216e-06
1.78049e-06
1.77712e-06
1.77712e-06
1.77712e-06
1.77712e-06
1.77712e-06
1.77712e-06
1.77712e-06
1.77712e-06
1.77712e-06
1.78031e-06
1.78216e-06
1.78205e-06
1.77996e-06
1.77712e-06
1.77712e-06
1.77712e-06
1.77712e-06
1.77712e-06
1.77712e-06
1.77712e-06
1.77963e-06
1.78051e-06
1.78235e-06
1.78233e-06
1.78056e-06
1.77985e-06
1.77712e-06
1.77712e-06
1.77712e-06
1.77712e-06
1.77712e-06
1.7796e-06
1.78029e-06
1.78081e-06
1.78217e-06
1.78054e-06
1.77987e-06
1.77712e-06
1.77712e-06
1.77712e-06
1.77963e-06
1.78029e-06
1.78078e-06
1.78242e-06
1.78218e-06
1.78064e-06
1.78037e-06
1.78029e-06
1.78031e-06
1.78051e-06
1.78081e-06
1.78242e-06
1.78239e-06
1.78227e-06
1.78216e-06
1.78216e-06
1.78235e-06
1.76524e-06
1.76345e-06
1.76336e-06
1.7634e-06
1.76496e-06
1.76525e-06
1.76541e-06
1.7637e-06
1.76304e-06
1.76004e-06
1.76004e-06
1.76004e-06
1.76288e-06
1.76348e-06
1.76509e-06
1.7637e-06
1.76298e-06
1.76004e-06
1.76004e-06
1.76004e-06
1.76004e-06
1.76004e-06
1.76277e-06
1.76345e-06
1.76509e-06
1.76524e-06
1.76304e-06
1.76004e-06
1.76004e-06
1.76004e-06
1.76004e-06
1.76004e-06
1.76004e-06
1.76004e-06
1.76279e-06
1.76355e-06
1.76531e-06
1.76345e-06
1.76004e-06
1.76004e-06
1.76004e-06
1.76004e-06
1.76004e-06
1.76004e-06
1.76004e-06
1.76004e-06
1.76004e-06
1.76328e-06
1.76518e-06
1.76336e-06
1.76004e-06
1.76004e-06
1.76004e-06
1.76004e-06
1.76004e-06
1.76004e-06
1.76004e-06
1.76004e-06
1.76004e-06
1.7632e-06
1.76507e-06
1.7634e-06
1.76004e-06
1.76004e-06
1.76004e-06
1.76004e-06
1.76004e-06
1.76004e-06
1.76004e-06
1.76004e-06
1.76004e-06
1.76323e-06
1.76507e-06
1.76496e-06
1.76288e-06
1.76004e-06
1.76004e-06
1.76004e-06
1.76004e-06
1.76004e-06
1.76004e-06
1.76004e-06
1.76254e-06
1.76342e-06
1.76526e-06
1.76525e-06
1.76348e-06
1.76277e-06
1.76004e-06
1.76004e-06
1.76004e-06
1.76004e-06
1.76004e-06
1.76251e-06
1.7632e-06
1.76372e-06
1.76509e-06
1.76345e-06
1.76279e-06
1.76004e-06
1.76004e-06
1.76004e-06
1.76254e-06
1.76321e-06
1.7637e-06
1.76533e-06
1.76509e-06
1.76355e-06
1.76328e-06
1.7632e-06
1.76323e-06
1.76342e-06
1.76372e-06
1.76533e-06
1.76531e-06
1.76518e-06
1.76507e-06
1.76507e-06
1.76526e-06
1.74816e-06
1.74637e-06
1.74627e-06
1.74632e-06
1.74788e-06
1.74816e-06
1.74832e-06
1.74662e-06
1.74595e-06
1.74295e-06
1.74295e-06
1.74295e-06
1.74579e-06
1.74639e-06
1.748e-06
1.74662e-06
1.74589e-06
1.74295e-06
1.74295e-06
1.74295e-06
1.74295e-06
1.74295e-06
1.74568e-06
1.74637e-06
1.74801e-06
1.74816e-06
1.74595e-06
1.74295e-06
1.74295e-06
1.74295e-06
1.74295e-06
1.74295e-06
1.74295e-06
1.74295e-06
1.7457e-06
1.74647e-06
1.74822e-06
1.74637e-06
1.74295e-06
1.74295e-06
1.74295e-06
1.74295e-06
1.74295e-06
1.74295e-06
1.74295e-06
1.74295e-06
1.74295e-06
1.7462e-06
1.7481e-06
1.74627e-06
1.74295e-06
1.74295e-06
1.74295e-06
1.74295e-06
1.74295e-06
1.74295e-06
1.74295e-06
1.74295e-06
1.74295e-06
1.74612e-06
1.74798e-06
1.74631e-06
1.74295e-06
1.74295e-06
1.74295e-06
1.74295e-06
1.74295e-06
1.74295e-06
1.74295e-06
1.74295e-06
1.74295e-06
1.74614e-06
1.74799e-06
1.74788e-06
1.74579e-06
1.74295e-06
1.74295e-06
1.74295e-06
1.74295e-06
1.74295e-06
1.74295e-06
1.74295e-06
1.74546e-06
1.74634e-06
1.74818e-06
1.74816e-06
1.74639e-06
1.74568e-06
1.74295e-06
1.74295e-06
1.74295e-06
1.74295e-06
1.74295e-06
1.74543e-06
1.74612e-06
1.74663e-06
1.748e-06
1.74637e-06
1.7457e-06
1.74295e-06
1.74295e-06
1.74295e-06
1.74546e-06
1.74612e-06
1.74661e-06
1.74825e-06
1.74801e-06
1.74647e-06
1.7462e-06
1.74612e-06
1.74614e-06
1.74634e-06
1.74663e-06
1.74825e-06
1.74822e-06
1.7481e-06
1.74798e-06
1.74799e-06
1.74818e-06
1.73107e-06
1.72928e-06
1.72919e-06
1.72923e-06
1.73079e-06
1.73108e-06
1.73124e-06
1.72953e-06
1.72887e-06
1.72587e-06
1.72587e-06
1.72587e-06
1.72871e-06
1.7293e-06
1.73091e-06
1.72953e-06
1.72881e-06
1.72587e-06
1.72587e-06
1.72587e-06
1.72587e-06
1.72587e-06
1.7286e-06
1.72928e-06
1.73092e-06
1.73107e-06
1.72887e-06
1.72587e-06
1.72587e-06
1.72587e-06
1.72587e-06
1.72587e-06
1.72587e-06
1.72587e-06
1.72862e-06
1.72938e-06
1.73114e-06
1.72928e-06
1.72587e-06
1.72587e-06
1.72587e-06
1.72587e-06
1.72587e-06
1.72587e-06
1.72587e-06
1.72587e-06
1.72587e-06
1.72911e-06
1.73101e-06
1.72919e-06
1.72587e-06
1.72587e-06
1.72587e-06
1.72587e-06
1.72587e-06
1.72587e-06
1.72587e-06
1.72587e-06
1.72587e-06
1.72903e-06
1.7309e-06
1.72923e-06
1.72587e-06
1.72587e-06
1.72587e-06
1.72587e-06
1.72587e-06
1.72587e-06
1.72587e-06
1.72587e-06
1.72587e-06
1.72906e-06
1.7309e-06
1.73079e-06
1.72871e-06
1.72587e-06
1.72587e-06
1.72587e-06
1.72587e-06
1.72587e-06
1.72587e-06
1.72587e-06
1.72837e-06
1.72925e-06
1.73109e-06
1.73108e-06
1.7293e-06
1.72859e-06
1.72587e-06
1.72587e-06
1.72587e-06
1.72587e-06
1.72587e-06
1.72834e-06
1.72903e-06
1.72955e-06
1.73091e-06
1.72928e-06
1.72862e-06
1.72587e-06
1.72587e-06
1.72587e-06
1.72837e-06
1.72903e-06
1.72952e-06
1.73116e-06
1.73092e-06
1.72938e-06
1.72911e-06
1.72903e-06
1.72906e-06
1.72925e-06
1.72955e-06
1.73116e-06
1.73114e-06
1.73101e-06
1.7309e-06
1.7309e-06
1.73109e-06
1.71399e-06
1.7122e-06
1.7121e-06
1.71214e-06
1.71371e-06
1.71399e-06
1.71415e-06
1.71245e-06
1.71178e-06
1.70878e-06
1.70878e-06
1.70878e-06
1.71162e-06
1.71222e-06
1.71383e-06
1.71245e-06
1.71172e-06
1.70878e-06
1.70878e-06
1.70878e-06
1.70878e-06
1.70878e-06
1.71151e-06
1.7122e-06
1.71384e-06
1.71399e-06
1.71178e-06
1.70878e-06
1.70878e-06
1.70878e-06
1.70878e-06
1.70878e-06
1.70878e-06
1.70878e-06
1.71153e-06
1.7123e-06
1.71405e-06
1.7122e-06
1.70878e-06
1.70878e-06
1.70878e-06
1.70878e-06
1.70878e-06
1.70878e-06
1.70878e-06
1.70878e-06
1.70878e-06
1.71203e-06
1.71393e-06
1.7121e-06
1.70878e-06
1.70878e-06
1.70878e-06
1.70878e-06
1.70878e-06
1.70878e-06
1.70878e-06
1.70878e-06
1.70878e-06
1.71195e-06
1.71381e-06
1.71214e-06
1.70878e-06
1.70878e-06
1.70878e-06
1.70878e-06
1.70878e-06
1.70878e-06
1.70878e-06
1.70878e-06
1.70878e-06
1.71197e-06
1.71382e-06
1.71371e-06
1.71162e-06
1.70878e-06
1.70878e-06
1.70878e-06
1.70878e-06
1.70878e-06
1.70878e-06
1.70878e-06
1.71129e-06
1.71217e-06
1.71401e-06
1.71399e-06
1.71222e-06
1.71151e-06
1.70878e-06
1.70878e-06
1.70878e-06
1.70878e-06
1.70878e-06
1.71126e-06
1.71195e-06
1.71246e-06
1.71383e-06
1.7122e-06
1.71153e-06
1.70878e-06
1.70878e-06
1.70878e-06
1.71129e-06
1.71195e-06
1.71244e-06
1.71408e-06
1.71384e-06
1.7123e-06
1.71203e-06
1.71195e-06
1.71197e-06
1.71217e-06
1.71246e-06
1.71408e-06
1.71405e-06
1.71393e-06
1.71381e-06
1.71382e-06
1.71401e-06
1.6969e-06
1.69511e-06
1.69502e-06
1.69506e-06
1.69662e-06
1.69691e-06
1.69706e-06
1.69536e-06
1.6947e-06
1.6917e-06
1.6917e-06
1.6917e-06
1.69454e-06
1.69513e-06
1.69674e-06
1.69536e-06
1.69464e-06
1.6917e-06
1.6917e-06
1.6917e-06
1.6917e-06
1.6917e-06
1.69442e-06
1.69511e-06
1.69675e-06
1.6969e-06
1.6947e-06
1.6917e-06
1.6917e-06
1.6917e-06
1.6917e-06
1.6917e-06
1.6917e-06
1.6917e-06
1.69444e-06
1.69521e-06
1.69697e-06
1.69511e-06
1.6917e-06
1.6917e-06
1.6917e-06
1.6917e-06
1.6917e-06
1.6917e-06
1.6917e-06
1.6917e-06
1.6917e-06
1.69494e-06
1.69684e-06
1.69502e-06
1.6917e-06
1.6917e-06
1.6917e-06
1.6917e-06
1.6917e-06
1.6917e-06
1.6917e-06
1.6917e-06
1.6917e-06
1.69486e-06
1.69673e-06
1.69506e-06
1.6917e-06
1.6917e-06
1.6917e-06
1.6917e-06
1.6917e-06
1.6917e-06
1.6917e-06
1.6917e-06
1.6917e-06