/*--------------------------------*- C++ -*----------------------------------*\
| =========                 |                                                 |
| \\      /  F ield         | OpenFOAM: The Open Source CFD Toolbox           |
|  \\    /   O peration     | Version:  v2012                                 |
|   \\  /    A nd           | Website:  www.openfoam.com                      |
|    \\/     M anipulation  |                                                 |
\*---------------------------------------------------------------------------*/
FoamFile
{
    version     2.0;
    format      ascii;
    class       volScalarField;
    location    "89";
    object      p;
}
// * * * * * * * * * * * * * * * * * * * * * * * * * * * * * * * * * * * * * //

dimensions      [0 2 -2 0 0 0 0];


internalField   nonuniform List<scalar> 
292667
(
9.73737e-07
9.65035e-07
9.64423e-07
9.64475e-07
9.65284e-07
9.74549e-07
9.65236e-07
9.63165e-07
9.61935e-07
9.61427e-07
9.61491e-07
9.62149e-07
9.63556e-07
9.65793e-07
9.65235e-07
9.62567e-07
9.60873e-07
9.59933e-07
9.59535e-07
9.59587e-07
9.601e-07
9.61188e-07
9.63085e-07
9.65923e-07
9.73738e-07
9.63165e-07
9.60873e-07
9.59495e-07
9.58722e-07
9.58391e-07
9.58435e-07
9.58863e-07
9.5976e-07
9.6132e-07
9.63871e-07
9.73111e-07
9.65035e-07
9.61935e-07
9.59933e-07
9.58722e-07
9.58035e-07
9.57737e-07
9.57778e-07
9.58163e-07
9.58962e-07
9.60335e-07
9.62593e-07
9.68212e-07
9.64423e-07
9.61427e-07
9.59535e-07
9.58391e-07
9.57737e-07
9.57453e-07
9.57493e-07
9.57861e-07
9.58621e-07
9.59922e-07
9.62065e-07
9.66756e-07
9.64475e-07
9.61491e-07
9.59587e-07
9.58435e-07
9.57778e-07
9.57493e-07
9.57532e-07
9.57903e-07
9.58669e-07
9.5998e-07
9.62141e-07
9.67043e-07
9.65284e-07
9.62149e-07
9.601e-07
9.58863e-07
9.58163e-07
9.57861e-07
9.57903e-07
9.58297e-07
9.59114e-07
9.60523e-07
9.62842e-07
9.68487e-07
9.74549e-07
9.63556e-07
9.61188e-07
9.5976e-07
9.58962e-07
9.58621e-07
9.58669e-07
9.59114e-07
9.60048e-07
9.61678e-07
9.64317e-07
9.72935e-07
9.65793e-07
9.63085e-07
9.6132e-07
9.60335e-07
9.59922e-07
9.5998e-07
9.60523e-07
9.61678e-07
9.63678e-07
9.69148e-07
9.65924e-07
9.63871e-07
9.62593e-07
9.62065e-07
9.62141e-07
9.62842e-07
9.64317e-07
9.69148e-07
9.73111e-07
9.68212e-07
9.66756e-07
9.67043e-07
9.68487e-07
9.72935e-07
9.51284e-07
9.50759e-07
9.50721e-07
9.5079e-07
9.51338e-07
9.51188e-07
9.51295e-07
9.50888e-07
9.50589e-07
9.49595e-07
9.49578e-07
9.49594e-07
9.50748e-07
9.50957e-07
9.51365e-07
9.50888e-07
9.50563e-07
9.49624e-07
9.49587e-07
9.49619e-07
9.49587e-07
9.49623e-07
9.50735e-07
9.5095e-07
9.51357e-07
9.51284e-07
9.50589e-07
9.49624e-07
9.49567e-07
9.49584e-07
9.49562e-07
9.49584e-07
9.49567e-07
9.49624e-07
9.50742e-07
9.5099e-07
9.51362e-07
9.50759e-07
9.49595e-07
9.49587e-07
9.49585e-07
9.49543e-07
9.49547e-07
9.49543e-07
9.49584e-07
9.49587e-07
9.49594e-07
9.51158e-07
9.51551e-07
9.50721e-07
9.49578e-07
9.49619e-07
9.49562e-07
9.49547e-07
9.49534e-07
9.49547e-07
9.49561e-07
9.49618e-07
9.49577e-07
9.51178e-07
9.51504e-07
9.5079e-07
9.49594e-07
9.49587e-07
9.49584e-07
9.49543e-07
9.49547e-07
9.49542e-07
9.49584e-07
9.49586e-07
9.49593e-07
9.5117e-07
9.51524e-07
9.51338e-07
9.50748e-07
9.49624e-07
9.49567e-07
9.49584e-07
9.49562e-07
9.49584e-07
9.49566e-07
9.49623e-07
9.50951e-07
9.51062e-07
9.51502e-07
9.51188e-07
9.50957e-07
9.50735e-07
9.49624e-07
9.49587e-07
9.49618e-07
9.49587e-07
9.49623e-07
9.5092e-07
9.51027e-07
9.51014e-07
9.51365e-07
9.5095e-07
9.50742e-07
9.49595e-07
9.49578e-07
9.49594e-07
9.50951e-07
9.51027e-07
9.51042e-07
9.51451e-07
9.51357e-07
9.5099e-07
9.51158e-07
9.51179e-07
9.51171e-07
9.51061e-07
9.51013e-07
9.51451e-07
9.51362e-07
9.51552e-07
9.51505e-07
9.51525e-07
9.51501e-07
9.43182e-07
9.42574e-07
9.42524e-07
9.42568e-07
9.43214e-07
9.43213e-07
9.43184e-07
9.42659e-07
9.42307e-07
9.41363e-07
9.41362e-07
9.41363e-07
9.42465e-07
9.42702e-07
9.43214e-07
9.4266e-07
9.42281e-07
9.41398e-07
9.41406e-07
9.41433e-07
9.41406e-07
9.41397e-07
9.4246e-07
9.42702e-07
9.43215e-07
9.43182e-07
9.42308e-07
9.41398e-07
9.41418e-07
9.41455e-07
9.4145e-07
9.41455e-07
9.41418e-07
9.41398e-07
9.42474e-07
9.4277e-07
9.43221e-07
9.42574e-07
9.41363e-07
9.41406e-07
9.41456e-07
9.41461e-07
9.41479e-07
9.41461e-07
9.41455e-07
9.41406e-07
9.41363e-07
9.42858e-07
9.43383e-07
9.42524e-07
9.41362e-07
9.41433e-07
9.41451e-07
9.4148e-07
9.41479e-07
9.41479e-07
9.4145e-07
9.41433e-07
9.41362e-07
9.42867e-07
9.43412e-07
9.42568e-07
9.41363e-07
9.41406e-07
9.41455e-07
9.41461e-07
9.41479e-07
9.41461e-07
9.41455e-07
9.41406e-07
9.41363e-07
9.42862e-07
9.43411e-07
9.43214e-07
9.42465e-07
9.41397e-07
9.41418e-07
9.41456e-07
9.4145e-07
9.41456e-07
9.41417e-07
9.41397e-07
9.42693e-07
9.4283e-07
9.43366e-07
9.43213e-07
9.42702e-07
9.4246e-07
9.41398e-07
9.41406e-07
9.41433e-07
9.41406e-07
9.41397e-07
9.42672e-07
9.42771e-07
9.42844e-07
9.43214e-07
9.42702e-07
9.42474e-07
9.41363e-07
9.41362e-07
9.41363e-07
9.42693e-07
9.42771e-07
9.42827e-07
9.4334e-07
9.43215e-07
9.42771e-07
9.42858e-07
9.42867e-07
9.42862e-07
9.4283e-07
9.42844e-07
9.4334e-07
9.43221e-07
9.43383e-07
9.43412e-07
9.43411e-07
9.43366e-07
9.35112e-07
9.34494e-07
9.34439e-07
9.34485e-07
9.35142e-07
9.35144e-07
9.35115e-07
9.34577e-07
9.34207e-07
9.33246e-07
9.33247e-07
9.33246e-07
9.34358e-07
9.34609e-07
9.35144e-07
9.34577e-07
9.34174e-07
9.33265e-07
9.33279e-07
9.33292e-07
9.33279e-07
9.33265e-07
9.34344e-07
9.34607e-07
9.35146e-07
9.35112e-07
9.34207e-07
9.33265e-07
9.33288e-07
9.33314e-07
9.33315e-07
9.33314e-07
9.33288e-07
9.33265e-07
9.34364e-07
9.34689e-07
9.35151e-07
9.34494e-07
9.33246e-07
9.3328e-07
9.33315e-07
9.33328e-07
9.33341e-07
9.33328e-07
9.33315e-07
9.3328e-07
9.33245e-07
9.34768e-07
9.35315e-07
9.34439e-07
9.33247e-07
9.33292e-07
9.33315e-07
9.33341e-07
9.33343e-07
9.33341e-07
9.33315e-07
9.33292e-07
9.33247e-07
9.34769e-07
9.3534e-07
9.34485e-07
9.33246e-07
9.33279e-07
9.33314e-07
9.33328e-07
9.33341e-07
9.33328e-07
9.33314e-07
9.33279e-07
9.33246e-07
9.34767e-07
9.35339e-07
9.35142e-07
9.34358e-07
9.33265e-07
9.33288e-07
9.33315e-07
9.33315e-07
9.33315e-07
9.33288e-07
9.33265e-07
9.34584e-07
9.34745e-07
9.35296e-07
9.35144e-07
9.34609e-07
9.34344e-07
9.33265e-07
9.3328e-07
9.33292e-07
9.3328e-07
9.33265e-07
9.34558e-07
9.34673e-07
9.3477e-07
9.35144e-07
9.34607e-07
9.34364e-07
9.33245e-07
9.33247e-07
9.33245e-07
9.34584e-07
9.34673e-07
9.34748e-07
9.35273e-07
9.35146e-07
9.34689e-07
9.34768e-07
9.34769e-07
9.34767e-07
9.34746e-07
9.3477e-07
9.35273e-07
9.35151e-07
9.35315e-07
9.3534e-07
9.35339e-07
9.35296e-07
9.27041e-07
9.2642e-07
9.26364e-07
9.2641e-07
9.27072e-07
9.27074e-07
9.27046e-07
9.26503e-07
9.26126e-07
9.25156e-07
9.25158e-07
9.25156e-07
9.26277e-07
9.26533e-07
9.27074e-07
9.26503e-07
9.26089e-07
9.25166e-07
9.25177e-07
9.25182e-07
9.25177e-07
9.25166e-07
9.26257e-07
9.2653e-07
9.27077e-07
9.27041e-07
9.26126e-07
9.25166e-07
9.25182e-07
9.25197e-07
9.25199e-07
9.25197e-07
9.25181e-07
9.25166e-07
9.26281e-07
9.26616e-07
9.27082e-07
9.2642e-07
9.25156e-07
9.25177e-07
9.25197e-07
9.25209e-07
9.25217e-07
9.25209e-07
9.25197e-07
9.25177e-07
9.25156e-07
9.26692e-07
9.27246e-07
9.26364e-07
9.25158e-07
9.25182e-07
9.25199e-07
9.25217e-07
9.25219e-07
9.25217e-07
9.25199e-07
9.25182e-07
9.25158e-07
9.26691e-07
9.27269e-07
9.26411e-07
9.25156e-07
9.25177e-07
9.25197e-07
9.25209e-07
9.25217e-07
9.25209e-07
9.25197e-07
9.25177e-07
9.25156e-07
9.2669e-07
9.27268e-07
9.27071e-07
9.26277e-07
9.25166e-07
9.25182e-07
9.25197e-07
9.25199e-07
9.25197e-07
9.25181e-07
9.25166e-07
9.26501e-07
9.26672e-07
9.27226e-07
9.27074e-07
9.26533e-07
9.26257e-07
9.25166e-07
9.25177e-07
9.25182e-07
9.25177e-07
9.25166e-07
9.26471e-07
9.26595e-07
9.267e-07
9.27074e-07
9.2653e-07
9.26281e-07
9.25156e-07
9.25158e-07
9.25156e-07
9.26501e-07
9.26595e-07
9.26677e-07
9.27205e-07
9.27077e-07
9.26616e-07
9.26692e-07
9.26691e-07
9.2669e-07
9.26672e-07
9.267e-07
9.27205e-07
9.27082e-07
9.27246e-07
9.27269e-07
9.27268e-07
9.27226e-07
9.18969e-07
9.18347e-07
9.18291e-07
9.18337e-07
9.18999e-07
9.19003e-07
9.18975e-07
9.1843e-07
9.1805e-07
9.17076e-07
9.17077e-07
9.17076e-07
9.18201e-07
9.18459e-07
9.19003e-07
9.1843e-07
9.18012e-07
9.17081e-07
9.17088e-07
9.1709e-07
9.17088e-07
9.17081e-07
9.18179e-07
9.18456e-07
9.19006e-07
9.18969e-07
9.1805e-07
9.17081e-07
9.1709e-07
9.17099e-07
9.171e-07
9.17099e-07
9.1709e-07
9.17081e-07
9.18204e-07
9.18543e-07
9.1901e-07
9.18347e-07
9.17076e-07
9.17088e-07
9.17099e-07
9.17107e-07
9.17111e-07
9.17107e-07
9.17099e-07
9.17088e-07
9.17076e-07
9.18619e-07
9.19173e-07
9.18291e-07
9.17077e-07
9.1709e-07
9.17101e-07
9.17111e-07
9.17113e-07
9.17111e-07
9.17101e-07
9.1709e-07
9.17077e-07
9.18617e-07
9.19197e-07
9.18337e-07
9.17076e-07
9.17088e-07
9.17099e-07
9.17107e-07
9.17111e-07
9.17107e-07
9.17099e-07
9.17088e-07
9.17076e-07
9.18615e-07
9.19196e-07
9.18999e-07
9.18201e-07
9.17081e-07
9.1709e-07
9.17099e-07
9.17101e-07
9.17099e-07
9.1709e-07
9.17081e-07
9.18424e-07
9.18599e-07
9.19155e-07
9.19003e-07
9.18459e-07
9.18179e-07
9.17081e-07
9.17088e-07
9.1709e-07
9.17088e-07
9.17081e-07
9.18393e-07
9.1852e-07
9.18628e-07
9.19003e-07
9.18456e-07
9.18204e-07
9.17076e-07
9.17077e-07
9.17076e-07
9.18424e-07
9.1852e-07
9.18605e-07
9.19133e-07
9.19006e-07
9.18543e-07
9.18619e-07
9.18617e-07
9.18615e-07
9.18599e-07
9.18628e-07
9.19133e-07
9.1901e-07
9.19173e-07
9.19197e-07
9.19196e-07
9.19154e-07
9.10897e-07
9.10273e-07
9.10217e-07
9.10263e-07
9.10926e-07
9.1093e-07
9.10902e-07
9.10356e-07
9.09975e-07
9.08999e-07
9.09e-07
9.08999e-07
9.10126e-07
9.10385e-07
9.10931e-07
9.10356e-07
9.09937e-07
9.09002e-07
9.09006e-07
9.09007e-07
9.09006e-07
9.09002e-07
9.10104e-07
9.10382e-07
9.10933e-07
9.10896e-07
9.09975e-07
9.09002e-07
9.09008e-07
9.09012e-07
9.09013e-07
9.09012e-07
9.09008e-07
9.09002e-07
9.10129e-07
9.1047e-07
9.10937e-07
9.10273e-07
9.08999e-07
9.09007e-07
9.09012e-07
9.09017e-07
9.09019e-07
9.09017e-07
9.09012e-07
9.09007e-07
9.08999e-07
9.10545e-07
9.111e-07
9.10217e-07
9.09e-07
9.09007e-07
9.09013e-07
9.09019e-07
9.0902e-07
9.09019e-07
9.09013e-07
9.09007e-07
9.09e-07
9.10542e-07
9.11124e-07
9.10263e-07
9.08999e-07
9.09007e-07
9.09012e-07
9.09017e-07
9.09019e-07
9.09017e-07
9.09012e-07
9.09007e-07
9.08999e-07
9.10541e-07
9.11123e-07
9.10926e-07
9.10126e-07
9.09002e-07
9.09007e-07
9.09012e-07
9.09013e-07
9.09012e-07
9.09008e-07
9.09002e-07
9.10349e-07
9.10526e-07
9.11081e-07
9.1093e-07
9.10385e-07
9.10104e-07
9.09002e-07
9.09007e-07
9.09007e-07
9.09007e-07
9.09002e-07
9.10317e-07
9.10446e-07
9.10556e-07
9.10931e-07
9.10382e-07
9.10129e-07
9.08999e-07
9.09e-07
9.08999e-07
9.10349e-07
9.10446e-07
9.10532e-07
9.11061e-07
9.10933e-07
9.1047e-07
9.10545e-07
9.10542e-07
9.10541e-07
9.10526e-07
9.10556e-07
9.11061e-07
9.10937e-07
9.111e-07
9.11124e-07
9.11123e-07
9.11081e-07
9.02823e-07
9.022e-07
9.02143e-07
9.0219e-07
9.02853e-07
9.02857e-07
9.02829e-07
9.02283e-07
9.01901e-07
9.00924e-07
9.00925e-07
9.00924e-07
9.02052e-07
9.02311e-07
9.02857e-07
9.02283e-07
9.01862e-07
9.00926e-07
9.00929e-07
9.00929e-07
9.00929e-07
9.00926e-07
9.02029e-07
9.02309e-07
9.0286e-07
9.02823e-07
9.01901e-07
9.00926e-07
9.00929e-07
9.00931e-07
9.00932e-07
9.00931e-07
9.00929e-07
9.00926e-07
9.02055e-07
9.02397e-07
9.02864e-07
9.022e-07
9.00924e-07
9.00929e-07
9.00931e-07
9.00935e-07
9.00935e-07
9.00935e-07
9.00931e-07
9.00929e-07
9.00924e-07
9.02471e-07
9.03027e-07
9.02143e-07
9.00925e-07
9.00929e-07
9.00932e-07
9.00935e-07
9.00936e-07
9.00935e-07
9.00932e-07
9.00929e-07
9.00925e-07
9.02469e-07
9.03051e-07
9.0219e-07
9.00924e-07
9.00929e-07
9.00931e-07
9.00935e-07
9.00935e-07
9.00935e-07
9.00931e-07
9.00929e-07
9.00924e-07
9.02468e-07
9.0305e-07
9.02853e-07
9.02052e-07
9.00926e-07
9.00929e-07
9.00931e-07
9.00932e-07
9.00931e-07
9.00929e-07
9.00926e-07
9.02275e-07
9.02453e-07
9.03008e-07
9.02857e-07
9.02311e-07
9.02029e-07
9.00926e-07
9.00929e-07
9.00929e-07
9.00929e-07
9.00926e-07
9.02242e-07
9.02373e-07
9.02483e-07
9.02857e-07
9.02309e-07
9.02055e-07
9.00924e-07
9.00925e-07
9.00924e-07
9.02275e-07
9.02373e-07
9.02459e-07
9.02988e-07
9.0286e-07
9.02397e-07
9.02471e-07
9.02469e-07
9.02468e-07
9.02453e-07
9.02483e-07
9.02988e-07
9.02864e-07
9.03027e-07
9.03051e-07
9.0305e-07
9.03008e-07
8.9475e-07
8.94126e-07
8.94069e-07
8.94116e-07
8.94779e-07
8.94783e-07
8.94755e-07
8.94209e-07
8.93827e-07
8.92849e-07
8.9285e-07
8.92849e-07
8.93978e-07
8.94238e-07
8.94784e-07
8.94209e-07
8.93788e-07
8.9285e-07
8.92853e-07
8.92852e-07
8.92853e-07
8.9285e-07
8.93955e-07
8.94235e-07
8.94787e-07
8.9475e-07
8.93827e-07
8.9285e-07
8.92853e-07
8.92854e-07
8.92854e-07
8.92854e-07
8.92853e-07
8.9285e-07
8.93981e-07
8.94323e-07
8.94791e-07
8.94126e-07
8.92849e-07
8.92853e-07
8.92854e-07
8.92856e-07
8.92856e-07
8.92856e-07
8.92854e-07
8.92853e-07
8.92849e-07
8.94398e-07
8.94954e-07
8.94069e-07
8.9285e-07
8.92852e-07
8.92854e-07
8.92856e-07
8.92857e-07
8.92856e-07
8.92855e-07
8.92852e-07
8.9285e-07
8.94395e-07
8.94977e-07
8.94116e-07
8.92849e-07
8.92853e-07
8.92854e-07
8.92856e-07
8.92856e-07
8.92856e-07
8.92854e-07
8.92853e-07
8.9285e-07
8.94394e-07
8.94976e-07
8.94779e-07
8.93978e-07
8.9285e-07
8.92853e-07
8.92854e-07
8.92855e-07
8.92854e-07
8.92853e-07
8.92851e-07
8.94201e-07
8.94379e-07
8.94935e-07
8.94783e-07
8.94238e-07
8.93955e-07
8.9285e-07
8.92853e-07
8.92852e-07
8.92853e-07
8.92851e-07
8.94169e-07
8.94299e-07
8.94409e-07
8.94784e-07
8.94235e-07
8.93981e-07
8.9285e-07
8.9285e-07
8.9285e-07
8.94201e-07
8.94299e-07
8.94385e-07
8.94915e-07
8.94787e-07
8.94323e-07
8.94398e-07
8.94395e-07
8.94394e-07
8.94379e-07
8.94409e-07
8.94915e-07
8.94791e-07
8.94954e-07
8.94977e-07
8.94976e-07
8.94935e-07
8.86676e-07
8.86052e-07
8.85995e-07
8.86042e-07
8.86706e-07
8.8671e-07
8.86682e-07
8.86135e-07
8.85753e-07
8.84775e-07
8.84776e-07
8.84775e-07
8.85904e-07
8.86164e-07
8.8671e-07
8.86135e-07
8.85714e-07
8.84776e-07
8.84778e-07
8.84777e-07
8.84778e-07
8.84776e-07
8.85881e-07
8.86161e-07
8.86713e-07
8.86676e-07
8.85753e-07
8.84776e-07
8.84778e-07
8.84778e-07
8.84779e-07
8.84778e-07
8.84778e-07
8.84776e-07
8.85907e-07
8.86249e-07
8.86717e-07
8.86052e-07
8.84775e-07
8.84778e-07
8.84778e-07
8.8478e-07
8.84779e-07
8.8478e-07
8.84778e-07
8.84778e-07
8.84775e-07
8.86324e-07
8.8688e-07
8.85995e-07
8.84776e-07
8.84777e-07
8.84779e-07
8.84779e-07
8.8478e-07
8.84779e-07
8.84779e-07
8.84777e-07
8.84776e-07
8.86321e-07
8.86903e-07
8.86042e-07
8.84775e-07
8.84778e-07
8.84778e-07
8.8478e-07
8.84779e-07
8.8478e-07
8.84778e-07
8.84778e-07
8.84775e-07
8.8632e-07
8.86902e-07
8.86706e-07
8.85904e-07
8.84776e-07
8.84778e-07
8.84778e-07
8.84779e-07
8.84778e-07
8.84778e-07
8.84776e-07
8.86127e-07
8.86305e-07
8.86861e-07
8.8671e-07
8.86164e-07
8.85881e-07
8.84776e-07
8.84778e-07
8.84777e-07
8.84778e-07
8.84776e-07
8.86094e-07
8.86225e-07
8.86335e-07
8.8671e-07
8.86161e-07
8.85907e-07
8.84775e-07
8.84776e-07
8.84775e-07
8.86127e-07
8.86225e-07
8.86311e-07
8.86841e-07
8.86713e-07
8.86249e-07
8.86324e-07
8.86321e-07
8.8632e-07
8.86305e-07
8.86335e-07
8.86841e-07
8.86717e-07
8.8688e-07
8.86903e-07
8.86902e-07
8.86861e-07
8.78602e-07
8.77979e-07
8.77922e-07
8.77968e-07
8.78632e-07
8.78636e-07
8.78608e-07
8.78062e-07
8.77679e-07
8.76701e-07
8.76702e-07
8.76701e-07
8.77831e-07
8.7809e-07
8.78637e-07
8.78062e-07
8.7764e-07
8.76702e-07
8.76704e-07
8.76703e-07
8.76704e-07
8.76702e-07
8.77808e-07
8.78087e-07
8.78639e-07
8.78602e-07
8.77679e-07
8.76702e-07
8.76703e-07
8.76703e-07
8.76703e-07
8.76703e-07
8.76703e-07
8.76702e-07
8.77834e-07
8.78175e-07
8.78643e-07
8.77978e-07
8.76701e-07
8.76704e-07
8.76703e-07
8.76705e-07
8.76703e-07
8.76705e-07
8.76703e-07
8.76704e-07
8.76701e-07
8.7825e-07
8.78806e-07
8.77922e-07
8.76702e-07
8.76703e-07
8.76704e-07
8.76703e-07
8.76704e-07
8.76703e-07
8.76703e-07
8.76703e-07
8.76702e-07
8.78247e-07
8.78829e-07
8.77968e-07
8.76701e-07
8.76704e-07
8.76703e-07
8.76705e-07
8.76703e-07
8.76705e-07
8.76703e-07
8.76704e-07
8.76701e-07
8.78246e-07
8.78829e-07
8.78632e-07
8.77831e-07
8.76702e-07
8.76703e-07
8.76703e-07
8.76703e-07
8.76703e-07
8.76703e-07
8.76702e-07
8.78053e-07
8.78231e-07
8.78787e-07
8.78636e-07
8.7809e-07
8.77808e-07
8.76702e-07
8.76704e-07
8.76703e-07
8.76704e-07
8.76702e-07
8.7802e-07
8.78151e-07
8.78262e-07
8.78637e-07
8.78087e-07
8.77834e-07
8.76701e-07
8.76702e-07
8.76701e-07
8.78053e-07
8.78151e-07
8.78238e-07
8.78767e-07
8.78639e-07
8.78175e-07
8.7825e-07
8.78247e-07
8.78246e-07
8.78231e-07
8.78262e-07
8.78767e-07
8.78643e-07
8.78806e-07
8.7883e-07
8.78829e-07
8.78787e-07
8.70529e-07
8.69905e-07
8.69848e-07
8.69895e-07
8.70559e-07
8.70563e-07
8.70535e-07
8.69988e-07
8.69605e-07
8.68627e-07
8.68628e-07
8.68627e-07
8.69757e-07
8.70017e-07
8.70563e-07
8.69988e-07
8.69566e-07
8.68628e-07
8.6863e-07
8.68629e-07
8.6863e-07
8.68628e-07
8.69734e-07
8.70014e-07
8.70566e-07
8.70529e-07
8.69605e-07
8.68628e-07
8.68629e-07
8.68628e-07
8.68629e-07
8.68628e-07
8.68629e-07
8.68628e-07
8.6976e-07
8.70102e-07
8.70569e-07
8.69905e-07
8.68627e-07
8.6863e-07
8.68628e-07
8.68631e-07
8.68629e-07
8.6863e-07
8.68628e-07
8.6863e-07
8.68627e-07
8.70176e-07
8.70732e-07
8.69848e-07
8.68628e-07
8.68629e-07
8.68629e-07
8.68629e-07
8.68629e-07
8.68629e-07
8.68629e-07
8.68629e-07
8.68628e-07
8.70173e-07
8.70756e-07
8.69895e-07
8.68628e-07
8.6863e-07
8.68628e-07
8.6863e-07
8.68629e-07
8.6863e-07
8.68628e-07
8.6863e-07
8.68627e-07
8.70172e-07
8.70755e-07
8.70559e-07
8.69757e-07
8.68628e-07
8.68629e-07
8.68628e-07
8.68629e-07
8.68628e-07
8.68629e-07
8.68628e-07
8.6998e-07
8.70158e-07
8.70713e-07
8.70563e-07
8.70017e-07
8.69734e-07
8.68628e-07
8.6863e-07
8.68629e-07
8.6863e-07
8.68628e-07
8.69947e-07
8.70078e-07
8.70188e-07
8.70563e-07
8.70014e-07
8.6976e-07
8.68627e-07
8.68628e-07
8.68627e-07
8.6998e-07
8.70078e-07
8.70164e-07
8.70693e-07
8.70566e-07
8.70102e-07
8.70177e-07
8.70173e-07
8.70172e-07
8.70158e-07
8.70188e-07
8.70693e-07
8.70569e-07
8.70733e-07
8.70756e-07
8.70755e-07
8.70713e-07
8.62455e-07
8.61831e-07
8.61774e-07
8.61821e-07
8.62485e-07
8.62489e-07
8.62461e-07
8.61914e-07
8.61532e-07
8.60554e-07
8.60554e-07
8.60554e-07
8.61683e-07
8.61943e-07
8.62489e-07
8.61914e-07
8.61493e-07
8.60554e-07
8.60556e-07
8.60555e-07
8.60556e-07
8.60554e-07
8.6166e-07
8.6194e-07
8.62492e-07
8.62455e-07
8.61532e-07
8.60554e-07
8.60555e-07
8.60554e-07
8.60555e-07
8.60554e-07
8.60555e-07
8.60554e-07
8.61686e-07
8.62028e-07
8.62496e-07
8.61831e-07
8.60554e-07
8.60556e-07
8.60554e-07
8.60556e-07
8.60555e-07
8.60556e-07
8.60554e-07
8.60556e-07
8.60554e-07
8.62103e-07
8.62659e-07
8.61774e-07
8.60554e-07
8.60555e-07
8.60555e-07
8.60555e-07
8.60555e-07
8.60555e-07
8.60555e-07
8.60555e-07
8.60554e-07
8.621e-07
8.62682e-07
8.61821e-07
8.60554e-07
8.60556e-07
8.60554e-07
8.60556e-07
8.60555e-07
8.60556e-07
8.60554e-07
8.60556e-07
8.60554e-07
8.62099e-07
8.62681e-07
8.62485e-07
8.61683e-07
8.60554e-07
8.60555e-07
8.60554e-07
8.60555e-07
8.60554e-07
8.60555e-07
8.60554e-07
8.61906e-07
8.62084e-07
8.6264e-07
8.62489e-07
8.61943e-07
8.6166e-07
8.60554e-07
8.60556e-07
8.60555e-07
8.60556e-07
8.60554e-07
8.61873e-07
8.62004e-07
8.62114e-07
8.62489e-07
8.6194e-07
8.61686e-07
8.60554e-07
8.60554e-07
8.60554e-07
8.61906e-07
8.62004e-07
8.6209e-07
8.6262e-07
8.62492e-07
8.62028e-07
8.62103e-07
8.621e-07
8.62099e-07
8.62084e-07
8.62114e-07
8.6262e-07
8.62496e-07
8.62659e-07
8.62682e-07
8.62681e-07
8.6264e-07
8.54381e-07
8.53757e-07
8.537e-07
8.53747e-07
8.54411e-07
8.54415e-07
8.54387e-07
8.5384e-07
8.53458e-07
8.5248e-07
8.52481e-07
8.5248e-07
8.53609e-07
8.53869e-07
8.54416e-07
8.5384e-07
8.53419e-07
8.5248e-07
8.52482e-07
8.52481e-07
8.52482e-07
8.5248e-07
8.53586e-07
8.53866e-07
8.54418e-07
8.54381e-07
8.53458e-07
8.5248e-07
8.52481e-07
8.5248e-07
8.52481e-07
8.5248e-07
8.52481e-07
8.5248e-07
8.53612e-07
8.53954e-07
8.54422e-07
8.53757e-07
8.5248e-07
8.52482e-07
8.5248e-07
8.52482e-07
8.52481e-07
8.52482e-07
8.5248e-07
8.52482e-07
8.5248e-07
8.54029e-07
8.54585e-07
8.537e-07
8.52481e-07
8.52481e-07
8.52481e-07
8.52481e-07
8.52481e-07
8.52481e-07
8.52481e-07
8.52481e-07
8.52481e-07
8.54026e-07
8.54608e-07
8.53747e-07
8.5248e-07
8.52482e-07
8.5248e-07
8.52482e-07
8.52481e-07
8.52482e-07
8.5248e-07
8.52482e-07
8.5248e-07
8.54025e-07
8.54607e-07
8.54411e-07
8.53609e-07
8.5248e-07
8.52481e-07
8.5248e-07
8.52481e-07
8.52481e-07
8.52481e-07
8.5248e-07
8.53832e-07
8.5401e-07
8.54566e-07
8.54415e-07
8.53869e-07
8.53586e-07
8.5248e-07
8.52482e-07
8.52481e-07
8.52482e-07
8.5248e-07
8.53799e-07
8.5393e-07
8.54041e-07
8.54416e-07
8.53866e-07
8.53612e-07
8.5248e-07
8.52481e-07
8.5248e-07
8.53832e-07
8.5393e-07
8.54017e-07
8.54546e-07
8.54418e-07
8.53954e-07
8.54029e-07
8.54026e-07
8.54025e-07
8.5401e-07
8.54041e-07
8.54546e-07
8.54422e-07
8.54585e-07
8.54608e-07
8.54607e-07
8.54566e-07
8.46307e-07
8.45683e-07
8.45627e-07
8.45673e-07
8.46337e-07
8.46341e-07
8.46313e-07
8.45767e-07
8.45384e-07
8.44406e-07
8.44407e-07
8.44406e-07
8.45536e-07
8.45795e-07
8.46342e-07
8.45767e-07
8.45345e-07
8.44406e-07
8.44408e-07
8.44407e-07
8.44408e-07
8.44406e-07
8.45512e-07
8.45792e-07
8.46344e-07
8.46307e-07
8.45384e-07
8.44406e-07
8.44407e-07
8.44407e-07
8.44407e-07
8.44407e-07
8.44407e-07
8.44406e-07
8.45538e-07
8.45881e-07
8.46348e-07
8.45683e-07
8.44406e-07
8.44408e-07
8.44407e-07
8.44408e-07
8.44407e-07
8.44408e-07
8.44407e-07
8.44408e-07
8.44406e-07
8.45955e-07
8.46511e-07
8.45627e-07
8.44407e-07
8.44407e-07
8.44407e-07
8.44407e-07
8.44407e-07
8.44407e-07
8.44407e-07
8.44407e-07
8.44407e-07
8.45952e-07
8.46535e-07
8.45673e-07
8.44406e-07
8.44408e-07
8.44407e-07
8.44408e-07
8.44407e-07
8.44408e-07
8.44407e-07
8.44408e-07
8.44406e-07
8.45951e-07
8.46534e-07
8.46337e-07
8.45536e-07
8.44406e-07
8.44407e-07
8.44407e-07
8.44407e-07
8.44407e-07
8.44407e-07
8.44406e-07
8.45758e-07
8.45937e-07
8.46492e-07
8.46341e-07
8.45795e-07
8.45512e-07
8.44406e-07
8.44408e-07
8.44407e-07
8.44408e-07
8.44406e-07
8.45725e-07
8.45856e-07
8.45967e-07
8.46342e-07
8.45792e-07
8.45538e-07
8.44406e-07
8.44407e-07
8.44406e-07
8.45758e-07
8.45856e-07
8.45943e-07
8.46472e-07
8.46344e-07
8.45881e-07
8.45955e-07
8.45952e-07
8.45951e-07
8.45937e-07
8.45967e-07
8.46472e-07
8.46348e-07
8.46511e-07
8.46535e-07
8.46534e-07
8.46492e-07
8.38234e-07
8.3761e-07
8.37553e-07
8.376e-07
8.38263e-07
8.38267e-07
8.38239e-07
8.37693e-07
8.3731e-07
8.36332e-07
8.36333e-07
8.36332e-07
8.37462e-07
8.37722e-07
8.38268e-07
8.37693e-07
8.37271e-07
8.36333e-07
8.36335e-07
8.36333e-07
8.36335e-07
8.36333e-07
8.37439e-07
8.37719e-07
8.38271e-07
8.38234e-07
8.3731e-07
8.36333e-07
8.36334e-07
8.36333e-07
8.36333e-07
8.36333e-07
8.36334e-07
8.36333e-07
8.37465e-07
8.37807e-07
8.38274e-07
8.3761e-07
8.36332e-07
8.36335e-07
8.36333e-07
8.36334e-07
8.36333e-07
8.36334e-07
8.36333e-07
8.36335e-07
8.36332e-07
8.37881e-07
8.38437e-07
8.37553e-07
8.36333e-07
8.36333e-07
8.36333e-07
8.36333e-07
8.36333e-07
8.36333e-07
8.36333e-07
8.36333e-07
8.36333e-07
8.37878e-07
8.38461e-07
8.376e-07
8.36332e-07
8.36335e-07
8.36333e-07
8.36334e-07
8.36333e-07
8.36334e-07
8.36333e-07
8.36335e-07
8.36332e-07
8.37877e-07
8.3846e-07
8.38263e-07
8.37462e-07
8.36333e-07
8.36334e-07
8.36333e-07
8.36333e-07
8.36333e-07
8.36334e-07
8.36333e-07
8.37685e-07
8.37863e-07
8.38418e-07
8.38267e-07
8.37722e-07
8.37439e-07
8.36333e-07
8.36335e-07
8.36333e-07
8.36335e-07
8.36333e-07
8.37652e-07
8.37783e-07
8.37893e-07
8.38268e-07
8.37719e-07
8.37465e-07
8.36332e-07
8.36333e-07
8.36332e-07
8.37685e-07
8.37783e-07
8.37869e-07
8.38398e-07
8.38271e-07
8.37807e-07
8.37881e-07
8.37878e-07
8.37877e-07
8.37863e-07
8.37893e-07
8.38398e-07
8.38274e-07
8.38437e-07
8.38461e-07
8.3846e-07
8.38419e-07
8.3016e-07
8.29536e-07
8.29479e-07
8.29526e-07
8.3019e-07
8.30194e-07
8.30166e-07
8.29619e-07
8.29237e-07
8.28258e-07
8.28259e-07
8.28258e-07
8.29388e-07
8.29648e-07
8.30194e-07
8.29619e-07
8.29198e-07
8.28259e-07
8.28261e-07
8.28259e-07
8.28261e-07
8.28259e-07
8.29365e-07
8.29645e-07
8.30197e-07
8.3016e-07
8.29237e-07
8.28259e-07
8.2826e-07
8.28259e-07
8.2826e-07
8.28259e-07
8.2826e-07
8.28259e-07
8.29391e-07
8.29733e-07
8.30201e-07
8.29536e-07
8.28258e-07
8.28261e-07
8.28259e-07
8.28261e-07
8.28259e-07
8.28261e-07
8.28259e-07
8.28261e-07
8.28258e-07
8.29808e-07
8.30364e-07
8.29479e-07
8.28259e-07
8.28259e-07
8.2826e-07
8.28259e-07
8.2826e-07
8.28259e-07
8.2826e-07
8.28259e-07
8.28259e-07
8.29805e-07
8.30387e-07
8.29526e-07
8.28258e-07
8.28261e-07
8.28259e-07
8.28261e-07
8.28259e-07
8.28261e-07
8.28259e-07
8.28261e-07
8.28258e-07
8.29804e-07
8.30386e-07
8.3019e-07
8.29388e-07
8.28259e-07
8.2826e-07
8.28259e-07
8.2826e-07
8.28259e-07
8.2826e-07
8.28259e-07
8.29611e-07
8.29789e-07
8.30345e-07
8.30194e-07
8.29648e-07
8.29365e-07
8.28259e-07
8.28261e-07
8.28259e-07
8.28261e-07
8.28259e-07
8.29578e-07
8.29709e-07
8.29819e-07
8.30194e-07
8.29645e-07
8.29391e-07
8.28258e-07
8.28259e-07
8.28258e-07
8.29611e-07
8.29709e-07
8.29795e-07
8.30325e-07
8.30197e-07
8.29733e-07
8.29808e-07
8.29805e-07
8.29804e-07
8.29789e-07
8.29819e-07
8.30325e-07
8.30201e-07
8.30364e-07
8.30387e-07
8.30386e-07
8.30345e-07
8.22086e-07
8.21462e-07
8.21405e-07
8.21452e-07
8.22116e-07
8.2212e-07
8.22092e-07
8.21546e-07
8.21163e-07
8.20185e-07
8.20186e-07
8.20185e-07
8.21314e-07
8.21574e-07
8.2212e-07
8.21546e-07
8.21124e-07
8.20185e-07
8.20187e-07
8.20186e-07
8.20187e-07
8.20185e-07
8.21291e-07
8.21571e-07
8.22123e-07
8.22086e-07
8.21163e-07
8.20185e-07
8.20186e-07
8.20185e-07
8.20186e-07
8.20185e-07
8.20186e-07
8.20185e-07
8.21317e-07
8.21659e-07
8.22127e-07
8.21462e-07
8.20185e-07
8.20187e-07
8.20185e-07
8.20187e-07
8.20185e-07
8.20187e-07
8.20185e-07
8.20187e-07
8.20185e-07
8.21734e-07
8.2229e-07
8.21405e-07
8.20186e-07
8.20186e-07
8.20186e-07
8.20185e-07
8.20186e-07
8.20185e-07
8.20186e-07
8.20186e-07
8.20186e-07
8.21731e-07
8.22313e-07
8.21452e-07
8.20185e-07
8.20187e-07
8.20185e-07
8.20187e-07
8.20185e-07
8.20187e-07
8.20185e-07
8.20187e-07
8.20185e-07
8.2173e-07
8.22312e-07
8.22116e-07
8.21314e-07
8.20185e-07
8.20186e-07
8.20185e-07
8.20186e-07
8.20185e-07
8.20186e-07
8.20185e-07
8.21537e-07
8.21715e-07
8.22271e-07
8.2212e-07
8.21574e-07
8.21291e-07
8.20185e-07
8.20187e-07
8.20186e-07
8.20187e-07
8.20185e-07
8.21504e-07
8.21635e-07
8.21746e-07
8.2212e-07
8.21571e-07
8.21317e-07
8.20185e-07
8.20186e-07
8.20185e-07
8.21537e-07
8.21635e-07
8.21722e-07
8.22251e-07
8.22123e-07
8.21659e-07
8.21734e-07
8.21731e-07
8.2173e-07
8.21715e-07
8.21745e-07
8.22251e-07
8.22127e-07
8.2229e-07
8.22313e-07
8.22312e-07
8.22271e-07
8.14012e-07
8.13388e-07
8.13332e-07
8.13378e-07
8.14042e-07
8.14046e-07
8.14018e-07
8.13472e-07
8.13089e-07
8.12111e-07
8.12112e-07
8.12111e-07
8.1324e-07
8.135e-07
8.14047e-07
8.13472e-07
8.1305e-07
8.12111e-07
8.12113e-07
8.12112e-07
8.12113e-07
8.12111e-07
8.13217e-07
8.13497e-07
8.14049e-07
8.14012e-07
8.13089e-07
8.12111e-07
8.12112e-07
8.12111e-07
8.12112e-07
8.12111e-07
8.12112e-07
8.12111e-07
8.13243e-07
8.13585e-07
8.14053e-07
8.13388e-07
8.12111e-07
8.12113e-07
8.12111e-07
8.12113e-07
8.12112e-07
8.12113e-07
8.12111e-07
8.12113e-07
8.12111e-07
8.1366e-07
8.14216e-07
8.13332e-07
8.12112e-07
8.12112e-07
8.12112e-07
8.12112e-07
8.12112e-07
8.12112e-07
8.12112e-07
8.12112e-07
8.12112e-07
8.13657e-07
8.14239e-07
8.13378e-07
8.12111e-07
8.12113e-07
8.12111e-07
8.12113e-07
8.12112e-07
8.12113e-07
8.12111e-07
8.12113e-07
8.12111e-07
8.13656e-07
8.14239e-07
8.14042e-07
8.1324e-07
8.12111e-07
8.12112e-07
8.12111e-07
8.12112e-07
8.12111e-07
8.12112e-07
8.12111e-07
8.13463e-07
8.13641e-07
8.14197e-07
8.14046e-07
8.135e-07
8.13217e-07
8.12111e-07
8.12113e-07
8.12112e-07
8.12113e-07
8.12111e-07
8.1343e-07
8.13561e-07
8.13672e-07
8.14047e-07
8.13497e-07
8.13243e-07
8.12111e-07
8.12112e-07
8.12111e-07
8.13463e-07
8.13561e-07
8.13648e-07
8.14177e-07
8.14049e-07
8.13585e-07
8.1366e-07
8.13657e-07
8.13656e-07
8.13641e-07
8.13672e-07
8.14177e-07
8.14053e-07
8.14216e-07
8.14239e-07
8.14239e-07
8.14197e-07
8.05939e-07
8.05315e-07
8.05258e-07
8.05305e-07
8.05968e-07
8.05972e-07
8.05944e-07
8.05398e-07
8.05015e-07
8.04037e-07
8.04038e-07
8.04037e-07
8.05167e-07
8.05426e-07
8.05973e-07
8.05398e-07
8.04976e-07
8.04038e-07
8.04039e-07
8.04038e-07
8.04039e-07
8.04038e-07
8.05144e-07
8.05424e-07
8.05976e-07
8.05939e-07
8.05015e-07
8.04038e-07
8.04039e-07
8.04038e-07
8.04038e-07
8.04038e-07
8.04038e-07
8.04038e-07
8.05169e-07
8.05512e-07
8.05979e-07
8.05315e-07
8.04037e-07
8.04039e-07
8.04038e-07
8.04039e-07
8.04038e-07
8.04039e-07
8.04038e-07
8.04039e-07
8.04037e-07
8.05586e-07
8.06142e-07
8.05258e-07
8.04038e-07
8.04038e-07
8.04038e-07
8.04038e-07
8.04038e-07
8.04038e-07
8.04038e-07
8.04038e-07
8.04038e-07
8.05583e-07
8.06166e-07
8.05305e-07
8.04037e-07
8.04039e-07
8.04038e-07
8.04039e-07
8.04038e-07
8.04039e-07
8.04038e-07
8.0404e-07
8.04037e-07
8.05582e-07
8.06165e-07
8.05968e-07
8.05167e-07
8.04038e-07
8.04039e-07
8.04038e-07
8.04038e-07
8.04038e-07
8.04039e-07
8.04038e-07
8.0539e-07
8.05568e-07
8.06123e-07
8.05972e-07
8.05426e-07
8.05143e-07
8.04038e-07
8.04039e-07
8.04038e-07
8.0404e-07
8.04038e-07
8.05357e-07
8.05488e-07
8.05598e-07
8.05973e-07
8.05424e-07
8.05169e-07
8.04037e-07
8.04038e-07
8.04037e-07
8.0539e-07
8.05488e-07
8.05574e-07
8.06103e-07
8.05975e-07
8.05512e-07
8.05586e-07
8.05583e-07
8.05582e-07
8.05568e-07
8.05598e-07
8.06103e-07
8.05979e-07
8.06142e-07
8.06166e-07
8.06165e-07
8.06124e-07
7.97865e-07
7.97241e-07
7.97184e-07
7.97231e-07
7.97894e-07
7.97898e-07
7.97871e-07
7.97324e-07
7.96941e-07
7.95963e-07
7.95964e-07
7.95963e-07
7.97093e-07
7.97353e-07
7.97899e-07
7.97324e-07
7.96902e-07
7.95964e-07
7.95966e-07
7.95964e-07
7.95966e-07
7.95964e-07
7.9707e-07
7.9735e-07
7.97902e-07
7.97865e-07
7.96941e-07
7.95964e-07
7.95965e-07
7.95964e-07
7.95964e-07
7.95964e-07
7.95965e-07
7.95964e-07
7.97096e-07
7.97438e-07
7.97905e-07
7.97241e-07
7.95963e-07
7.95966e-07
7.95964e-07
7.95966e-07
7.95964e-07
7.95966e-07
7.95964e-07
7.95966e-07
7.95963e-07
7.97513e-07
7.98069e-07
7.97184e-07
7.95964e-07
7.95964e-07
7.95964e-07
7.95964e-07
7.95964e-07
7.95964e-07
7.95965e-07
7.95964e-07
7.95964e-07
7.97509e-07
7.98092e-07
7.97231e-07
7.95963e-07
7.95966e-07
7.95964e-07
7.95966e-07
7.95964e-07