/*--------------------------------*- C++ -*----------------------------------*\
| =========                 |                                                 |
| \\      /  F ield         | OpenFOAM: The Open Source CFD Toolbox           |
|  \\    /   O peration     | Version:  v2012                                 |
|   \\  /    A nd           | Website:  www.openfoam.com                      |
|    \\/     M anipulation  |                                                 |
\*---------------------------------------------------------------------------*/
FoamFile
{
    version     2.0;
    format      ascii;
    class       volScalarField;
    location    "73";
    object      p;
}
// * * * * * * * * * * * * * * * * * * * * * * * * * * * * * * * * * * * * * //

dimensions      [0 2 -2 0 0 0 0];


internalField   nonuniform List<scalar> 
292667
(
1.04517e-06
1.03627e-06
1.03561e-06
1.03567e-06
1.03655e-06
1.04601e-06
1.03648e-06
1.03422e-06
1.03289e-06
1.03234e-06
1.03241e-06
1.03313e-06
1.03465e-06
1.0371e-06
1.03648e-06
1.03357e-06
1.03173e-06
1.03072e-06
1.03029e-06
1.03034e-06
1.0309e-06
1.03208e-06
1.03414e-06
1.03726e-06
1.04517e-06
1.03422e-06
1.03173e-06
1.03024e-06
1.02941e-06
1.02905e-06
1.0291e-06
1.02956e-06
1.03053e-06
1.03222e-06
1.035e-06
1.04462e-06
1.03627e-06
1.03289e-06
1.03072e-06
1.02941e-06
1.02866e-06
1.02834e-06
1.02838e-06
1.0288e-06
1.02967e-06
1.03115e-06
1.03361e-06
1.03957e-06
1.03561e-06
1.03234e-06
1.03029e-06
1.02905e-06
1.02834e-06
1.02803e-06
1.02808e-06
1.02848e-06
1.0293e-06
1.03071e-06
1.03304e-06
1.03807e-06
1.03567e-06
1.03241e-06
1.03034e-06
1.0291e-06
1.02838e-06
1.02808e-06
1.02812e-06
1.02852e-06
1.02935e-06
1.03077e-06
1.03312e-06
1.03837e-06
1.03655e-06
1.03313e-06
1.0309e-06
1.02956e-06
1.0288e-06
1.02847e-06
1.02852e-06
1.02895e-06
1.02983e-06
1.03136e-06
1.03388e-06
1.03985e-06
1.04601e-06
1.03465e-06
1.03208e-06
1.03053e-06
1.02967e-06
1.0293e-06
1.02935e-06
1.02983e-06
1.03084e-06
1.03261e-06
1.03548e-06
1.04446e-06
1.0371e-06
1.03414e-06
1.03222e-06
1.03115e-06
1.03071e-06
1.03077e-06
1.03136e-06
1.03261e-06
1.03478e-06
1.04053e-06
1.03726e-06
1.035e-06
1.03361e-06
1.03304e-06
1.03312e-06
1.03388e-06
1.03548e-06
1.04053e-06
1.04462e-06
1.03957e-06
1.03807e-06
1.03837e-06
1.03985e-06
1.04446e-06
1.02143e-06
1.0208e-06
1.02077e-06
1.02083e-06
1.02147e-06
1.02133e-06
1.02146e-06
1.02097e-06
1.02065e-06
1.01953e-06
1.01951e-06
1.01953e-06
1.02081e-06
1.02104e-06
1.02151e-06
1.02097e-06
1.02063e-06
1.01956e-06
1.01952e-06
1.01956e-06
1.01952e-06
1.01956e-06
1.02079e-06
1.02103e-06
1.0215e-06
1.02143e-06
1.02065e-06
1.01956e-06
1.01951e-06
1.01953e-06
1.01951e-06
1.01953e-06
1.01951e-06
1.01956e-06
1.0208e-06
1.02106e-06
1.02152e-06
1.0208e-06
1.01953e-06
1.01952e-06
1.01953e-06
1.01949e-06
1.01949e-06
1.01949e-06
1.01953e-06
1.01952e-06
1.01953e-06
1.02122e-06
1.0217e-06
1.02077e-06
1.01951e-06
1.01956e-06
1.01951e-06
1.01949e-06
1.01948e-06
1.01949e-06
1.01951e-06
1.01956e-06
1.01951e-06
1.02124e-06
1.02164e-06
1.02083e-06
1.01953e-06
1.01952e-06
1.01953e-06
1.01949e-06
1.01949e-06
1.01949e-06
1.01953e-06
1.01952e-06
1.01953e-06
1.02123e-06
1.02166e-06
1.02147e-06
1.02081e-06
1.01956e-06
1.01951e-06
1.01953e-06
1.01951e-06
1.01953e-06
1.01951e-06
1.01956e-06
1.021e-06
1.02113e-06
1.02165e-06
1.02133e-06
1.02104e-06
1.02079e-06
1.01956e-06
1.01952e-06
1.01956e-06
1.01952e-06
1.01956e-06
1.02097e-06
1.02109e-06
1.02109e-06
1.02151e-06
1.02103e-06
1.0208e-06
1.01953e-06
1.01951e-06
1.01953e-06
1.021e-06
1.02109e-06
1.02112e-06
1.02161e-06
1.0215e-06
1.02106e-06
1.02122e-06
1.02124e-06
1.02123e-06
1.02113e-06
1.02109e-06
1.02161e-06
1.02152e-06
1.0217e-06
1.02164e-06
1.02166e-06
1.02165e-06
1.01275e-06
1.01206e-06
1.012e-06
1.01205e-06
1.01276e-06
1.01278e-06
1.01276e-06
1.01216e-06
1.01178e-06
1.0107e-06
1.0107e-06
1.0107e-06
1.01193e-06
1.0122e-06
1.01277e-06
1.01216e-06
1.01175e-06
1.01074e-06
1.01074e-06
1.01078e-06
1.01074e-06
1.01074e-06
1.01193e-06
1.0122e-06
1.01277e-06
1.01275e-06
1.01178e-06
1.01074e-06
1.01076e-06
1.0108e-06
1.0108e-06
1.0108e-06
1.01076e-06
1.01074e-06
1.01194e-06
1.01226e-06
1.01279e-06
1.01206e-06
1.0107e-06
1.01074e-06
1.0108e-06
1.01081e-06
1.01083e-06
1.01081e-06
1.0108e-06
1.01074e-06
1.0107e-06
1.01234e-06
1.01294e-06
1.012e-06
1.0107e-06
1.01078e-06
1.0108e-06
1.01083e-06
1.01083e-06
1.01083e-06
1.0108e-06
1.01078e-06
1.0107e-06
1.01234e-06
1.01297e-06
1.01205e-06
1.0107e-06
1.01074e-06
1.0108e-06
1.01081e-06
1.01083e-06
1.01081e-06
1.0108e-06
1.01074e-06
1.0107e-06
1.01234e-06
1.01297e-06
1.01276e-06
1.01193e-06
1.01074e-06
1.01076e-06
1.0108e-06
1.0108e-06
1.0108e-06
1.01076e-06
1.01074e-06
1.01216e-06
1.01232e-06
1.01293e-06
1.01278e-06
1.0122e-06
1.01193e-06
1.01074e-06
1.01074e-06
1.01078e-06
1.01075e-06
1.01074e-06
1.01214e-06
1.01226e-06
1.01234e-06
1.01277e-06
1.0122e-06
1.01194e-06
1.0107e-06
1.0107e-06
1.0107e-06
1.01216e-06
1.01226e-06
1.01232e-06
1.01291e-06
1.01277e-06
1.01226e-06
1.01234e-06
1.01234e-06
1.01234e-06
1.01232e-06
1.01234e-06
1.01291e-06
1.01279e-06
1.01294e-06
1.01297e-06
1.01297e-06
1.01293e-06
1.00408e-06
1.00339e-06
1.00333e-06
1.00338e-06
1.0041e-06
1.00412e-06
1.0041e-06
1.00349e-06
1.00308e-06
1.00199e-06
1.00199e-06
1.00199e-06
1.00323e-06
1.00351e-06
1.00411e-06
1.00349e-06
1.00305e-06
1.00201e-06
1.00202e-06
1.00204e-06
1.00202e-06
1.00201e-06
1.00322e-06
1.00351e-06
1.00411e-06
1.00408e-06
1.00308e-06
1.00201e-06
1.00203e-06
1.00206e-06
1.00206e-06
1.00206e-06
1.00203e-06
1.00201e-06
1.00324e-06
1.00359e-06
1.00413e-06
1.00339e-06
1.00199e-06
1.00202e-06
1.00206e-06
1.00208e-06
1.00209e-06
1.00208e-06
1.00206e-06
1.00202e-06
1.00199e-06
1.00365e-06
1.00428e-06
1.00333e-06
1.00199e-06
1.00204e-06
1.00206e-06
1.00209e-06
1.00209e-06
1.00209e-06
1.00206e-06
1.00204e-06
1.00199e-06
1.00365e-06
1.0043e-06
1.00338e-06
1.00199e-06
1.00202e-06
1.00206e-06
1.00208e-06
1.00209e-06
1.00208e-06
1.00206e-06
1.00202e-06
1.00199e-06
1.00365e-06
1.0043e-06
1.0041e-06
1.00323e-06
1.00201e-06
1.00203e-06
1.00206e-06
1.00206e-06
1.00206e-06
1.00203e-06
1.00201e-06
1.00345e-06
1.00364e-06
1.00427e-06
1.00412e-06
1.00351e-06
1.00322e-06
1.00201e-06
1.00202e-06
1.00204e-06
1.00202e-06
1.00201e-06
1.00343e-06
1.00357e-06
1.00367e-06
1.00411e-06
1.00351e-06
1.00324e-06
1.00199e-06
1.00199e-06
1.00199e-06
1.00345e-06
1.00357e-06
1.00365e-06
1.00425e-06
1.00411e-06
1.00359e-06
1.00365e-06
1.00365e-06
1.00365e-06
1.00364e-06
1.00367e-06
1.00425e-06
1.00413e-06
1.00428e-06
1.0043e-06
1.0043e-06
1.00427e-06
9.95421e-07
9.94721e-07
9.94661e-07
9.94708e-07
9.95437e-07
9.95453e-07
9.95434e-07
9.94819e-07
9.94407e-07
9.93305e-07
9.93306e-07
9.93305e-07
9.94558e-07
9.94841e-07
9.95447e-07
9.94819e-07
9.94373e-07
9.93316e-07
9.93326e-07
9.93333e-07
9.93326e-07
9.93316e-07
9.94539e-07
9.94838e-07
9.9545e-07
9.95421e-07
9.94407e-07
9.93316e-07
9.93332e-07
9.93349e-07
9.93351e-07
9.93349e-07
9.93332e-07
9.93316e-07
9.94562e-07
9.94922e-07
9.95466e-07
9.94721e-07
9.93305e-07
9.93327e-07
9.93349e-07
9.93362e-07
9.9337e-07
9.93362e-07
9.93349e-07
9.93327e-07
9.93305e-07
9.94984e-07
9.95619e-07
9.94661e-07
9.93306e-07
9.93333e-07
9.93351e-07
9.9337e-07
9.93373e-07
9.9337e-07
9.93351e-07
9.93333e-07
9.93306e-07
9.94979e-07
9.95638e-07
9.94708e-07
9.93305e-07
9.93326e-07
9.93349e-07
9.93362e-07
9.9337e-07
9.93362e-07
9.93349e-07
9.93326e-07
9.93305e-07
9.9498e-07
9.95638e-07
9.95437e-07
9.94558e-07
9.93316e-07
9.93332e-07
9.93349e-07
9.93351e-07
9.93349e-07
9.93332e-07
9.93315e-07
9.94778e-07
9.94972e-07
9.95607e-07
9.95453e-07
9.94841e-07
9.94539e-07
9.93316e-07
9.93327e-07
9.93333e-07
9.93327e-07
9.93316e-07
9.94748e-07
9.94895e-07
9.95011e-07
9.95447e-07
9.94838e-07
9.94562e-07
9.93305e-07
9.93306e-07
9.93305e-07
9.94778e-07
9.94895e-07
9.94987e-07
9.95586e-07
9.9545e-07
9.94922e-07
9.94984e-07
9.94979e-07
9.9498e-07
9.94972e-07
9.95011e-07
9.95586e-07
9.95466e-07
9.95619e-07
9.95638e-07
9.95638e-07
9.95607e-07
9.86756e-07
9.86055e-07
9.85994e-07
9.86042e-07
9.86772e-07
9.86789e-07
9.86769e-07
9.86153e-07
9.85738e-07
9.84631e-07
9.84633e-07
9.84631e-07
9.85888e-07
9.86173e-07
9.86783e-07
9.86153e-07
9.85702e-07
9.84637e-07
9.84644e-07
9.84647e-07
9.84644e-07
9.84637e-07
9.85867e-07
9.86171e-07
9.86786e-07
9.86756e-07
9.85738e-07
9.84637e-07
9.84647e-07
9.84656e-07
9.84658e-07
9.84656e-07
9.84647e-07
9.84637e-07
9.85891e-07
9.86257e-07
9.86801e-07
9.86055e-07
9.84631e-07
9.84644e-07
9.84656e-07
9.84665e-07
9.84669e-07
9.84665e-07
9.84656e-07
9.84644e-07
9.84631e-07
9.86317e-07
9.86954e-07
9.85994e-07
9.84633e-07
9.84647e-07
9.84658e-07
9.84669e-07
9.84671e-07
9.84669e-07
9.84658e-07
9.84647e-07
9.84633e-07
9.86311e-07
9.86973e-07
9.86042e-07
9.84631e-07
9.84644e-07
9.84656e-07
9.84665e-07
9.84669e-07
9.84665e-07
9.84656e-07
9.84644e-07
9.84631e-07
9.86312e-07
9.86973e-07
9.86772e-07
9.85888e-07
9.84637e-07
9.84646e-07
9.84656e-07
9.84658e-07
9.84656e-07
9.84647e-07
9.84637e-07
9.86108e-07
9.86306e-07
9.86942e-07
9.86789e-07
9.86173e-07
9.85867e-07
9.84637e-07
9.84644e-07
9.84647e-07
9.84644e-07
9.84637e-07
9.86076e-07
9.86227e-07
9.86347e-07
9.86783e-07
9.86171e-07
9.85891e-07
9.84631e-07
9.84633e-07
9.84631e-07
9.86108e-07
9.86227e-07
9.86322e-07
9.86922e-07
9.86786e-07
9.86256e-07
9.86317e-07
9.86311e-07
9.86312e-07
9.86307e-07
9.86347e-07
9.86922e-07
9.86801e-07
9.86954e-07
9.86973e-07
9.86973e-07
9.86942e-07
9.7809e-07
9.77388e-07
9.77327e-07
9.77375e-07
9.78106e-07
9.78123e-07
9.78103e-07
9.77486e-07
9.7707e-07
9.75961e-07
9.75962e-07
9.75961e-07
9.77221e-07
9.77507e-07
9.78117e-07
9.77486e-07
9.77033e-07
9.75964e-07
9.75969e-07
9.7597e-07
9.75969e-07
9.75964e-07
9.77199e-07
9.77504e-07
9.7812e-07
9.7809e-07
9.7707e-07
9.75964e-07
9.7597e-07
9.75975e-07
9.75976e-07
9.75975e-07
9.7597e-07
9.75964e-07
9.77223e-07
9.7759e-07
9.78136e-07
9.77388e-07
9.75961e-07
9.75969e-07
9.75975e-07
9.7598e-07
9.75983e-07
9.7598e-07
9.75975e-07
9.75969e-07
9.75961e-07
9.77651e-07
9.78288e-07
9.77327e-07
9.75962e-07
9.7597e-07
9.75976e-07
9.75982e-07
9.75984e-07
9.75982e-07
9.75976e-07
9.7597e-07
9.75962e-07
9.77643e-07
9.78307e-07
9.77375e-07
9.75961e-07
9.75969e-07
9.75975e-07
9.7598e-07
9.75983e-07
9.7598e-07
9.75975e-07
9.75969e-07
9.75961e-07
9.77645e-07
9.78307e-07
9.78106e-07
9.77221e-07
9.75964e-07
9.7597e-07
9.75975e-07
9.75976e-07
9.75975e-07
9.7597e-07
9.75964e-07
9.7744e-07
9.7764e-07
9.78276e-07
9.78123e-07
9.77507e-07
9.77199e-07
9.75964e-07
9.75969e-07
9.7597e-07
9.75969e-07
9.75964e-07
9.77408e-07
9.77561e-07
9.77681e-07
9.78117e-07
9.77504e-07
9.77223e-07
9.75961e-07
9.75962e-07
9.75961e-07
9.7744e-07
9.77561e-07
9.77657e-07
9.78257e-07
9.7812e-07
9.7759e-07
9.77651e-07
9.77643e-07
9.77645e-07
9.7764e-07
9.77681e-07
9.78257e-07
9.78136e-07
9.78288e-07
9.78307e-07
9.78307e-07
9.78276e-07
9.69424e-07
9.68721e-07
9.6866e-07
9.68708e-07
9.69439e-07
9.69457e-07
9.69437e-07
9.68819e-07
9.68403e-07
9.67293e-07
9.67294e-07
9.67293e-07
9.68553e-07
9.6884e-07
9.69451e-07
9.6882e-07
9.68366e-07
9.67294e-07
9.67298e-07
9.67298e-07
9.67298e-07
9.67294e-07
9.68531e-07
9.68837e-07
9.69454e-07
9.69424e-07
9.68403e-07
9.67294e-07
9.67298e-07
9.673e-07
9.67301e-07
9.673e-07
9.67298e-07
9.67294e-07
9.68556e-07
9.68924e-07
9.69469e-07
9.68721e-07
9.67293e-07
9.67298e-07
9.673e-07
9.67304e-07
9.67305e-07
9.67304e-07
9.673e-07
9.67298e-07
9.67293e-07
9.68984e-07
9.69622e-07
9.6866e-07
9.67294e-07
9.67298e-07
9.67302e-07
9.67305e-07
9.67306e-07
9.67305e-07
9.67302e-07
9.67298e-07
9.67294e-07
9.68976e-07
9.6964e-07
9.68708e-07
9.67293e-07
9.67298e-07
9.673e-07
9.67304e-07
9.67305e-07
9.67304e-07
9.673e-07
9.67298e-07
9.67293e-07
9.68978e-07
9.6964e-07
9.69439e-07
9.68553e-07
9.67294e-07
9.67298e-07
9.673e-07
9.67302e-07
9.673e-07
9.67298e-07
9.67294e-07
9.68772e-07
9.68974e-07
9.6961e-07
9.69457e-07
9.6884e-07
9.68531e-07
9.67294e-07
9.67298e-07
9.67298e-07
9.67298e-07
9.67294e-07
9.6874e-07
9.68894e-07
9.69015e-07
9.69451e-07
9.68837e-07
9.68556e-07
9.67293e-07
9.67294e-07
9.67293e-07
9.68773e-07
9.68894e-07
9.6899e-07
9.69591e-07
9.69454e-07
9.68924e-07
9.68984e-07
9.68976e-07
9.68978e-07
9.68974e-07
9.69015e-07
9.69591e-07
9.69469e-07
9.69622e-07
9.6964e-07
9.69641e-07
9.6961e-07
9.60757e-07
9.60055e-07
9.59993e-07
9.60041e-07
9.60773e-07
9.6079e-07
9.6077e-07
9.60153e-07
9.59736e-07
9.58625e-07
9.58626e-07
9.58625e-07
9.59886e-07
9.60173e-07
9.60784e-07
9.60153e-07
9.59698e-07
9.58626e-07
9.58629e-07
9.58628e-07
9.58629e-07
9.58626e-07
9.59864e-07
9.60171e-07
9.60788e-07
9.60757e-07
9.59736e-07
9.58626e-07
9.58629e-07
9.5863e-07
9.5863e-07
9.5863e-07
9.58629e-07
9.58626e-07
9.59889e-07
9.60257e-07
9.60803e-07
9.60054e-07
9.58625e-07
9.58629e-07
9.5863e-07
9.58632e-07
9.58632e-07
9.58632e-07
9.5863e-07
9.58628e-07
9.58625e-07
9.60317e-07
9.60955e-07
9.59993e-07
9.58626e-07
9.58628e-07
9.5863e-07
9.58632e-07
9.58633e-07
9.58632e-07
9.5863e-07
9.58628e-07
9.58626e-07
9.6031e-07
9.60974e-07
9.60041e-07
9.58625e-07
9.58628e-07
9.5863e-07
9.58632e-07
9.58632e-07
9.58632e-07
9.5863e-07
9.58629e-07
9.58625e-07
9.60311e-07
9.60974e-07
9.60773e-07
9.59886e-07
9.58626e-07
9.58629e-07
9.58629e-07
9.5863e-07
9.5863e-07
9.58629e-07
9.58626e-07
9.60105e-07
9.60307e-07
9.60943e-07
9.6079e-07
9.60173e-07
9.59864e-07
9.58626e-07
9.58628e-07
9.58628e-07
9.58628e-07
9.58626e-07
9.60073e-07
9.60227e-07
9.60348e-07
9.60784e-07
9.60171e-07
9.59889e-07
9.58625e-07
9.58626e-07
9.58625e-07
9.60106e-07
9.60227e-07
9.60324e-07
9.60924e-07
9.60788e-07
9.60257e-07
9.60317e-07
9.60309e-07
9.60311e-07
9.60307e-07
9.60348e-07
9.60924e-07
9.60803e-07
9.60955e-07
9.60974e-07
9.60974e-07
9.60943e-07
9.5209e-07
9.51388e-07
9.51326e-07
9.51374e-07
9.52106e-07
9.52124e-07
9.52104e-07
9.51486e-07
9.51068e-07
9.49958e-07
9.49959e-07
9.49958e-07
9.5122e-07
9.51506e-07
9.52118e-07
9.51486e-07
9.51031e-07
9.49959e-07
9.4996e-07
9.4996e-07
9.4996e-07
9.49959e-07
9.51197e-07
9.51504e-07
9.52121e-07
9.5209e-07
9.51068e-07
9.49959e-07
9.4996e-07
9.49961e-07
9.49961e-07
9.49961e-07
9.4996e-07
9.49959e-07
9.51222e-07
9.5159e-07
9.52136e-07
9.51387e-07
9.49958e-07
9.4996e-07
9.49961e-07
9.49962e-07
9.49962e-07
9.49962e-07
9.49961e-07
9.4996e-07
9.49958e-07
9.5165e-07
9.52288e-07
9.51326e-07
9.49959e-07
9.4996e-07
9.49961e-07
9.49962e-07
9.49963e-07
9.49962e-07
9.49961e-07
9.4996e-07
9.49959e-07
9.51643e-07
9.52307e-07
9.51374e-07
9.49958e-07
9.4996e-07
9.49961e-07
9.49962e-07
9.49962e-07
9.49962e-07
9.4996e-07
9.4996e-07
9.49958e-07
9.51644e-07
9.52307e-07
9.52106e-07
9.5122e-07
9.49959e-07
9.4996e-07
9.4996e-07
9.49961e-07
9.4996e-07
9.4996e-07
9.49959e-07
9.51438e-07
9.5164e-07
9.52276e-07
9.52124e-07
9.51506e-07
9.51197e-07
9.49959e-07
9.4996e-07
9.4996e-07
9.4996e-07
9.49959e-07
9.51406e-07
9.5156e-07
9.51681e-07
9.52118e-07
9.51504e-07
9.51222e-07
9.49958e-07
9.49959e-07
9.49958e-07
9.51438e-07
9.5156e-07
9.51657e-07
9.52257e-07
9.52121e-07
9.5159e-07
9.5165e-07
9.51643e-07
9.51644e-07
9.5164e-07
9.51681e-07
9.52257e-07
9.52136e-07
9.52288e-07
9.52307e-07
9.52307e-07
9.52276e-07
9.43424e-07
9.42721e-07
9.4266e-07
9.42707e-07
9.43439e-07
9.43457e-07
9.43437e-07
9.42819e-07
9.42402e-07
9.41291e-07
9.41292e-07
9.41291e-07
9.42553e-07
9.4284e-07
9.43451e-07
9.42819e-07
9.42364e-07
9.41291e-07
9.41293e-07
9.41292e-07
9.41293e-07
9.41291e-07
9.4253e-07
9.42837e-07
9.43454e-07
9.43424e-07
9.42402e-07
9.41291e-07
9.41293e-07
9.41292e-07
9.41293e-07
9.41292e-07
9.41293e-07
9.41291e-07
9.42555e-07
9.42923e-07
9.43469e-07
9.42721e-07
9.41291e-07
9.41293e-07
9.41293e-07
9.41294e-07
9.41293e-07
9.41294e-07
9.41292e-07
9.41293e-07
9.41291e-07
9.42983e-07
9.43621e-07
9.4266e-07
9.41292e-07
9.41292e-07
9.41293e-07
9.41293e-07
9.41294e-07
9.41293e-07
9.41293e-07
9.41292e-07
9.41292e-07
9.42976e-07
9.4364e-07
9.42707e-07
9.41291e-07
9.41293e-07
9.41292e-07
9.41294e-07
9.41293e-07
9.41294e-07
9.41292e-07
9.41293e-07
9.41291e-07
9.42977e-07
9.4364e-07
9.43439e-07
9.42553e-07
9.41291e-07
9.41293e-07
9.41292e-07
9.41293e-07
9.41292e-07
9.41293e-07
9.41291e-07
9.42772e-07
9.42973e-07
9.43609e-07
9.43457e-07
9.42839e-07
9.4253e-07
9.41291e-07
9.41293e-07
9.41292e-07
9.41293e-07
9.41291e-07
9.42738e-07
9.42893e-07
9.43014e-07
9.43451e-07
9.42837e-07
9.42555e-07
9.41291e-07
9.41292e-07
9.41291e-07
9.42772e-07
9.42893e-07
9.4299e-07
9.4359e-07
9.43454e-07
9.42923e-07
9.42983e-07
9.42975e-07
9.42977e-07
9.42973e-07
9.43014e-07
9.4359e-07
9.43469e-07
9.43621e-07
9.4364e-07
9.4364e-07
9.43609e-07
9.34757e-07
9.34054e-07
9.33993e-07
9.34041e-07
9.34772e-07
9.3479e-07
9.3477e-07
9.34152e-07
9.33735e-07
9.32624e-07
9.32624e-07
9.32624e-07
9.33886e-07
9.34173e-07
9.34784e-07
9.34152e-07
9.33697e-07
9.32624e-07
9.32626e-07
9.32625e-07
9.32626e-07
9.32624e-07
9.33863e-07
9.3417e-07
9.34787e-07
9.34757e-07
9.33735e-07
9.32624e-07
9.32625e-07
9.32625e-07
9.32625e-07
9.32625e-07
9.32625e-07
9.32624e-07
9.33888e-07
9.34257e-07
9.34802e-07
9.34054e-07
9.32624e-07
9.32626e-07
9.32625e-07
9.32626e-07
9.32625e-07
9.32626e-07
9.32625e-07
9.32626e-07
9.32624e-07
9.34316e-07
9.34954e-07
9.33993e-07
9.32624e-07
9.32625e-07
9.32625e-07
9.32625e-07
9.32626e-07
9.32625e-07
9.32625e-07
9.32625e-07
9.32624e-07
9.34309e-07
9.34973e-07
9.34041e-07
9.32624e-07
9.32626e-07
9.32625e-07
9.32626e-07
9.32625e-07
9.32626e-07
9.32625e-07
9.32626e-07
9.32624e-07
9.34311e-07
9.34973e-07
9.34772e-07
9.33886e-07
9.32624e-07
9.32625e-07
9.32625e-07
9.32625e-07
9.32625e-07
9.32625e-07
9.32624e-07
9.34105e-07
9.34306e-07
9.34943e-07
9.3479e-07
9.34173e-07
9.33863e-07
9.32624e-07
9.32626e-07
9.32625e-07
9.32626e-07
9.32624e-07
9.34072e-07
9.34226e-07
9.34348e-07
9.34784e-07
9.3417e-07
9.33888e-07
9.32624e-07
9.32624e-07
9.32624e-07
9.34105e-07
9.34226e-07
9.34323e-07
9.34924e-07
9.34787e-07
9.34257e-07
9.34317e-07
9.34309e-07
9.34311e-07
9.34307e-07
9.34348e-07
9.34924e-07
9.34802e-07
9.34955e-07
9.34973e-07
9.34973e-07
9.34943e-07
9.2609e-07
9.25387e-07
9.25326e-07
9.25374e-07
9.26105e-07
9.26123e-07
9.26103e-07
9.25485e-07
9.25068e-07
9.23957e-07
9.23957e-07
9.23957e-07
9.25219e-07
9.25506e-07
9.26117e-07
9.25485e-07
9.2503e-07
9.23957e-07
9.23959e-07
9.23958e-07
9.23959e-07
9.23957e-07
9.25196e-07
9.25503e-07
9.2612e-07
9.2609e-07
9.25068e-07
9.23957e-07
9.23958e-07
9.23958e-07
9.23958e-07
9.23958e-07
9.23958e-07
9.23957e-07
9.25221e-07
9.2559e-07
9.26135e-07
9.25387e-07
9.23957e-07
9.23959e-07
9.23958e-07
9.23959e-07
9.23958e-07
9.23959e-07
9.23958e-07
9.23959e-07
9.23957e-07
9.25649e-07
9.26288e-07
9.25326e-07
9.23957e-07
9.23958e-07
9.23958e-07
9.23958e-07
9.23959e-07
9.23958e-07
9.23958e-07
9.23958e-07
9.23957e-07
9.25642e-07
9.26306e-07
9.25374e-07
9.23957e-07
9.23959e-07
9.23958e-07
9.23959e-07
9.23958e-07
9.23959e-07
9.23958e-07
9.23959e-07
9.23957e-07
9.25644e-07
9.26306e-07
9.26105e-07
9.25219e-07
9.23957e-07
9.23958e-07
9.23958e-07
9.23958e-07
9.23958e-07
9.23958e-07
9.23957e-07
9.25437e-07
9.2564e-07
9.26276e-07
9.26123e-07
9.25506e-07
9.25196e-07
9.23957e-07
9.23959e-07
9.23958e-07
9.23959e-07
9.23957e-07
9.25404e-07
9.25559e-07
9.25681e-07
9.26117e-07
9.25503e-07
9.25221e-07
9.23957e-07
9.23957e-07
9.23957e-07
9.25437e-07
9.25559e-07
9.25656e-07
9.26257e-07
9.2612e-07
9.2559e-07
9.2565e-07
9.25642e-07
9.25644e-07
9.2564e-07
9.25681e-07
9.26257e-07
9.26135e-07
9.26288e-07
9.26306e-07
9.26306e-07
9.26276e-07
9.17423e-07
9.1672e-07
9.16659e-07
9.16707e-07
9.17438e-07
9.17456e-07
9.17436e-07
9.16818e-07
9.16401e-07
9.1529e-07
9.1529e-07
9.1529e-07
9.16552e-07
9.16839e-07
9.1745e-07
9.16818e-07
9.16363e-07
9.1529e-07
9.15292e-07
9.15291e-07
9.15292e-07
9.1529e-07
9.16529e-07
9.16836e-07
9.17454e-07
9.17423e-07
9.16401e-07
9.1529e-07
9.15291e-07
9.1529e-07
9.15291e-07
9.1529e-07
9.15291e-07
9.1529e-07
9.16554e-07
9.16923e-07
9.17468e-07
9.1672e-07
9.1529e-07
9.15292e-07
9.1529e-07
9.15292e-07
9.15291e-07
9.15292e-07
9.1529e-07
9.15292e-07
9.1529e-07
9.16983e-07
9.17621e-07
9.16659e-07
9.1529e-07
9.15291e-07
9.15291e-07
9.15291e-07
9.15291e-07
9.15291e-07
9.15291e-07
9.15291e-07
9.1529e-07
9.16975e-07
9.17639e-07
9.16707e-07
9.1529e-07
9.15292e-07
9.1529e-07
9.15292e-07
9.15291e-07
9.15292e-07
9.1529e-07
9.15292e-07
9.1529e-07
9.16977e-07
9.17639e-07
9.17438e-07
9.16552e-07
9.1529e-07
9.15291e-07
9.1529e-07
9.15291e-07
9.1529e-07
9.15291e-07
9.1529e-07
9.16771e-07
9.16973e-07
9.17609e-07
9.17456e-07
9.16839e-07
9.16529e-07
9.1529e-07
9.15292e-07
9.15291e-07
9.15292e-07
9.1529e-07
9.16738e-07
9.16892e-07
9.17014e-07
9.1745e-07
9.16836e-07
9.16554e-07
9.1529e-07
9.1529e-07
9.1529e-07
9.16771e-07
9.16892e-07
9.16989e-07
9.1759e-07
9.17454e-07
9.16923e-07
9.16983e-07
9.16975e-07
9.16977e-07
9.16973e-07
9.17014e-07
9.1759e-07
9.17468e-07
9.17621e-07
9.17639e-07
9.17639e-07
9.17609e-07
9.08756e-07
9.08053e-07
9.07992e-07
9.0804e-07
9.08771e-07
9.08789e-07
9.08769e-07
9.08151e-07
9.07734e-07
9.06623e-07
9.06623e-07
9.06623e-07
9.07885e-07
9.08172e-07
9.08783e-07
9.08151e-07
9.07696e-07
9.06623e-07
9.06625e-07
9.06624e-07
9.06625e-07
9.06623e-07
9.07862e-07
9.08169e-07
9.08787e-07
9.08756e-07
9.07734e-07
9.06623e-07
9.06624e-07
9.06623e-07
9.06624e-07
9.06623e-07
9.06624e-07
9.06623e-07
9.07887e-07
9.08256e-07
9.08801e-07
9.08053e-07
9.06623e-07
9.06625e-07
9.06623e-07
9.06625e-07
9.06624e-07
9.06625e-07
9.06623e-07
9.06625e-07
9.06623e-07
9.08315e-07
9.08954e-07
9.07992e-07
9.06623e-07
9.06624e-07
9.06624e-07
9.06624e-07
9.06624e-07
9.06624e-07
9.06624e-07
9.06624e-07
9.06623e-07
9.08308e-07
9.08972e-07
9.0804e-07
9.06623e-07
9.06625e-07
9.06623e-07
9.06625e-07
9.06624e-07
9.06625e-07
9.06623e-07
9.06625e-07
9.06623e-07
9.0831e-07
9.08972e-07
9.08771e-07
9.07885e-07
9.06623e-07
9.06624e-07
9.06623e-07
9.06624e-07
9.06623e-07
9.06624e-07
9.06623e-07
9.08104e-07
9.08306e-07
9.08942e-07
9.08789e-07
9.08172e-07
9.07862e-07
9.06623e-07
9.06625e-07
9.06624e-07
9.06625e-07
9.06623e-07
9.08071e-07
9.08225e-07
9.08347e-07
9.08783e-07
9.08169e-07
9.07887e-07
9.06623e-07
9.06623e-07
9.06623e-07
9.08104e-07
9.08225e-07
9.08322e-07
9.08923e-07
9.08786e-07
9.08256e-07
9.08316e-07
9.08308e-07
9.0831e-07
9.08306e-07
9.08347e-07
9.08923e-07
9.08801e-07
9.08954e-07
9.08972e-07
9.08972e-07
9.08942e-07
9.00089e-07
8.99386e-07
8.99325e-07
8.99373e-07
9.00105e-07
9.00122e-07
9.00102e-07
8.99485e-07
8.99067e-07
8.97956e-07
8.97957e-07
8.97956e-07
8.99218e-07
8.99505e-07
9.00116e-07
8.99485e-07
8.9903e-07
8.97956e-07
8.97958e-07
8.97957e-07
8.97958e-07
8.97956e-07
8.99195e-07
8.99502e-07
9.0012e-07
9.00089e-07
8.99067e-07
8.97956e-07
8.97957e-07
8.97956e-07
8.97957e-07
8.97956e-07
8.97957e-07
8.97956e-07
8.9922e-07
8.99589e-07
9.00135e-07
8.99386e-07
8.97956e-07
8.97958e-07
8.97956e-07
8.97958e-07
8.97957e-07
8.97958e-07
8.97956e-07
8.97958e-07
8.97956e-07
8.99649e-07
9.00287e-07
8.99325e-07
8.97957e-07
8.97957e-07
8.97957e-07
8.97957e-07
8.97957e-07
8.97957e-07
8.97957e-07
8.97957e-07
8.97957e-07
8.99641e-07
9.00305e-07
8.99373e-07
8.97956e-07
8.97958e-07
8.97956e-07
8.97958e-07
8.97957e-07
8.97958e-07
8.97956e-07
8.97958e-07
8.97956e-07
8.99643e-07
9.00305e-07
9.00105e-07
8.99218e-07
8.97956e-07
8.97957e-07
8.97956e-07
8.97957e-07
8.97956e-07
8.97957e-07
8.97956e-07
8.99437e-07
8.99639e-07
9.00275e-07
9.00122e-07
8.99505e-07
8.99195e-07
8.97956e-07
8.97958e-07
8.97957e-07
8.97958e-07
8.97956e-07
8.99404e-07
8.99559e-07
8.9968e-07
9.00116e-07
8.99502e-07
8.9922e-07
8.97956e-07
8.97957e-07
8.97956e-07
8.99437e-07
8.99559e-07
8.99655e-07
9.00256e-07
9.0012e-07
8.99589e-07
8.99649e-07
8.99641e-07
8.99643e-07
8.99639e-07
8.9968e-07
9.00256e-07
9.00135e-07
9.00287e-07
9.00305e-07
9.00306e-07
9.00275e-07
8.91422e-07
8.90719e-07
8.90658e-07
8.90706e-07
8.91438e-07
8.91456e-07
8.91436e-07
8.90818e-07
8.904e-07
8.89289e-07
8.8929e-07
8.89289e-07
8.90551e-07
8.90838e-07
8.9145e-07
8.90818e-07
8.90363e-07
8.8929e-07
8.89291e-07
8.8929e-07
8.89291e-07
8.8929e-07
8.90528e-07
8.90836e-07
8.91453e-07
8.91422e-07
8.904e-07
8.8929e-07
8.8929e-07
8.8929e-07
8.8929e-07
8.8929e-07
8.8929e-07
8.8929e-07
8.90554e-07
8.90922e-07
8.91468e-07
8.90719e-07
8.89289e-07
8.89291e-07
8.8929e-07
8.89291e-07
8.8929e-07
8.89291e-07
8.8929e-07
8.89291e-07
8.89289e-07
8.90982e-07
8.9162e-07
8.90658e-07
8.8929e-07
8.8929e-07
8.8929e-07
8.8929e-07
8.8929e-07
8.8929e-07
8.8929e-07
8.8929e-07
8.8929e-07
8.90974e-07
8.91639e-07
8.90706e-07
8.89289e-07
8.89291e-07
8.8929e-07
8.89291e-07
8.8929e-07
8.89291e-07
8.8929e-07
8.89291e-07
8.89289e-07
8.90976e-07
8.91639e-07
8.91438e-07
8.90551e-07
8.8929e-07
8.8929e-07
8.8929e-07
8.8929e-07
8.8929e-07
8.8929e-07
8.8929e-07
8.9077e-07
8.90972e-07
8.91608e-07
8.91456e-07
8.90838e-07
8.90528e-07
8.8929e-07
8.89291e-07
8.8929e-07
8.89291e-07
8.8929e-07
8.90737e-07
8.90892e-07
8.91013e-07
8.9145e-07
8.90836e-07
8.90554e-07
8.89289e-07
8.8929e-07
8.89289e-07
8.9077e-07
8.90892e-07
8.90989e-07
8.91589e-07
8.91453e-07
8.90922e-07
8.90982e-07
8.90974e-07
8.90976e-07
8.90972e-07
8.91013e-07
8.91589e-07
8.91468e-07
8.9162e-07
8.91639e-07
8.91639e-07
8.91608e-07
8.82756e-07
8.82053e-07
8.81991e-07
8.82039e-07
8.82771e-07
8.82789e-07
8.82769e-07
8.82151e-07
8.81733e-07
8.80622e-07
8.80623e-07
8.80622e-07
8.81884e-07
8.82171e-07
8.82783e-07
8.82151e-07
8.81696e-07
8.80623e-07
8.80624e-07
8.80623e-07
8.80624e-07
8.80623e-07
8.81861e-07
8.82169e-07
8.82786e-07
8.82756e-07
8.81733e-07
8.80623e-07
8.80624e-07
8.80623e-07
8.80623e-07
8.80623e-07
8.80624e-07
8.80623e-07
8.81887e-07
8.82255e-07
8.82801e-07
8.82053e-07
8.80622e-07
8.80624e-07
8.80623e-07
8.80624e-07
8.80623e-07
8.80624e-07
8.80623e-07
8.80624e-07
8.80622e-07
8.82315e-07
8.82953e-07
8.81991e-07
8.80623e-07
8.80623e-07
8.80623e-07
8.80623e-07
8.80623e-07
8.80623e-07
8.80623e-07
8.80623e-07
8.80623e-07
8.82307e-07
8.82972e-07
8.82039e-07
8.80622e-07
8.80624e-07
8.80623e-07
8.80624e-07
8.80623e-07
8.80624e-07
8.80623e-07
8.80624e-07
8.80622e-07
8.82309e-07
8.82972e-07
8.82771e-07
8.81884e-07
8.80623e-07
8.80624e-07
8.80623e-07
8.80623e-07
8.80623e-07
8.80624e-07
8.80623e-07
8.82103e-07
8.82305e-07
8.82941e-07
8.82789e-07
8.82171e-07
8.81861e-07
8.80623e-07
8.80624e-07
8.80623e-07
8.80624e-07
8.80623e-07
8.8207e-07
8.82225e-07
8.82346e-07
8.82783e-07
8.82169e-07
8.81887e-07
8.80622e-07
8.80623e-07
8.80622e-07
8.82103e-07
8.82225e-07
8.82322e-07
8.82922e-07
8.82786e-07
8.82255e-07
8.82315e-07
8.82307e-07
8.82309e-07
8.82305e-07
8.82346e-07
8.82922e-07
8.82801e-07
8.82953e-07
8.82972e-07
8.82972e-07
8.82941e-07
8.74089e-07
8.73386e-07
8.73324e-07
8.73372e-07
8.74104e-07
8.74122e-07
8.74102e-07
8.73484e-07
8.73066e-07
8.71955e-07
8.71956e-07
8.71955e-07
8.73218e-07
8.73504e-07
8.74116e-07
8.73484e-07
8.73029e-07
8.71956e-07
8.71957e-07
8.71956e-07
8.71957e-07
8.71956e-07
8.73195e-07
8.73502e-07
8.74119e-07
8.74089e-07
8.73066e-07
8.71956e-07
8.71957e-07
8.71956e-07
8.71956e-07
8.71956e-07
8.71957e-07
8.71956e-07
8.7322e-07
8.73588e-07
8.74134e-07
8.73386e-07
8.71955e-07
8.71957e-07
8.71956e-07
8.71957e-07
8.71956e-07
8.71957e-07
8.71956e-07
8.71957e-07
8.71955e-07
8.73648e-07
8.74286e-07
8.73324e-07
8.71956e-07
8.71956e-07
8.71956e-07
8.71956e-07
8.71956e-07
8.71956e-07
8.71956e-07
8.71956e-07
8.71956e-07
8.7364e-07
8.74305e-07
8.73372e-07
8.71955e-07
8.71957e-07
8.71956e-07
8.71957e-07
8.71956e-07
8.71957e-07
8.71956e-07
8.71957e-07
8.71955e-07
8.73642e-07
8.74305e-07
8.74104e-07
8.73217e-07
8.71956e-07
8.71957e-07
8.71956e-07
8.71956e-07
8.71956e-07
8.71957e-07
8.71956e-07
8.73436e-07
8.73638e-07
8.74274e-07
8.74122e-07
8.73504e-07
8.73195e-07
8.71956e-07
8.71957e-07
8.71956e-07
8.71957e-07
8.71956e-07
8.73403e-07
8.73558e-07
8.7368e-07
8.74116e-07
8.73502e-07
8.7322e-07
8.71955e-07
8.71956e-07
8.71955e-07
8.73436e-07
8.73558e-07
8.73655e-07
8.74256e-07
8.74119e-07
8.73588e-07
8.73648e-07
8.7364e-07
8.73642e-07
8.73638e-07
8.7368e-07
8.74255e-07
8.74134e-07
8.74286e-07
8.74305e-07
8.74305e-07
8.74274e-07
8.65422e-07
8.64719e-07
8.64657e-07
8.64705e-07
8.65437e-07
8.65455e-07
8.65435e-07
8.64817e-07
8.64399e-07
8.63288e-07
8.63289e-07
8.63288e-07
8.64551e-07
8.64838e-07
8.65449e-07
8.64817e-07
8.64362e-07
8.63289e-07
8.63291e-07
8.63289e-07
8.63291e-07
8.63289e-07
8.64528e-07
8.64835e-07
8.65452e-07
8.65422e-07
8.64399e-07
8.63289e-07
8.6329e-07
8.63289e-07
8.63289e-07
8.63289e-07
8.6329e-07
8.63289e-07
8.64553e-07
8.64922e-07
8.65467e-07
8.64719e-07
8.63288e-07
8.6329e-07
8.63289e-07
8.6329e-07
8.63289e-07
8.6329e-07
8.63289e-07
8.63291e-07
8.63289e-07
8.64981e-07
8.65619e-07
8.64657e-07
8.63289e-07
8.63289e-07
8.63289e-07
8.63289e-07
8.63289e-07
8.63289e-07
8.63289e-07
8.63289e-07
8.63289e-07
8.64974e-07
8.65638e-07
8.64705e-07
8.63288e-07
8.63291e-07
8.63289e-07
8.6329e-07
8.63289e-07
8.6329e-07
8.63289e-07
8.63291e-07
8.63289e-07
8.64976e-07
8.65638e-07
8.65437e-07
8.64551e-07
8.63289e-07
8.6329e-07
8.63289e-07
8.63289e-07
8.63289e-07
8.6329e-07
8.63289e-07
8.64769e-07
8.64971e-07
8.65608e-07
8.65455e-07
8.64838e-07
8.64528e-07
8.63289e-07
8.63291e-07
8.63289e-07
8.63291e-07
8.63289e-07
8.64736e-07
8.64891e-07
8.65013e-07
8.65449e-07
8.64835e-07
8.64553e-07
8.63288e-07
8.63289e-07
8.63289e-07
8.64769e-07
8.64891e-07
8.64988e-07
8.65589e-07
8.65452e-07
8.64922e-07
8.64981e-07
8.64974e-07
8.64976e-07
8.64971e-07
8.65013e-07
8.65589e-07
8.65467e-07
8.65619e-07
8.65638e-07
8.65638e-07
8.65608e-07
8.56755e-07
8.56052e-07
8.55991e-07
8.56038e-07
8.5677e-07
8.56788e-07
8.56768e-07
8.5615e-07
8.55732e-07
8.54622e-07
8.54622e-07
8.54622e-07
8.55884e-07
8.56171e-07
8.56782e-07
8.5615e-07
8.55695e-07
8.54622e-07
8.54624e-07
8.54622e-07
8.54624e-07
8.54622e-07
8.55861e-07
8.56168e-07
8.56785e-07
8.56755e-07
8.55733e-07
8.54622e-07
8.54623e-07
8.54622e-07
8.54623e-07
8.54622e-07
8.54623e-07
8.54622e-07
8.55886e-07
8.56255e-07
8.568e-07
8.56052e-07
8.54622e-07
8.54624e-07
8.54622e-07
8.54623e-07
8.54622e-07
8.54623e-07
8.54622e-07
8.54624e-07
8.54622e-07
8.56314e-07
8.56952e-07
8.5599e-07
8.54622e-07
8.54622e-07
8.54623e-07
8.54622e-07
8.54623e-07
8.54622e-07
8.54623e-07
8.54622e-07
8.54622e-07
8.56307e-07
8.56971e-07
8.56038e-07
8.54621e-07
8.54624e-07
8.54622e-07
8.54623e-07
8.54622e-07
8.54623e-07
8.54622e-07
8.54624e-07
8.54622e-07
8.56309e-07
8.56971e-07