/*--------------------------------*- C++ -*----------------------------------*\
| =========                 |                                                 |
| \\      /  F ield         | OpenFOAM: The Open Source CFD Toolbox           |
|  \\    /   O peration     | Version:  v2012                                 |
|   \\  /    A nd           | Website:  www.openfoam.com                      |
|    \\/     M anipulation  |                                                 |
\*---------------------------------------------------------------------------*/
FoamFile
{
    version     2.0;
    format      ascii;
    class       volScalarField;
    location    "63";
    object      p;
}
// * * * * * * * * * * * * * * * * * * * * * * * * * * * * * * * * * * * * * //

dimensions      [0 2 -2 0 0 0 0];


internalField   nonuniform List<scalar> 
292667
(
1.10165e-06
1.09257e-06
1.09188e-06
1.09194e-06
1.09288e-06
1.10252e-06
1.09278e-06
1.09038e-06
1.08897e-06
1.08839e-06
1.08846e-06
1.08922e-06
1.09084e-06
1.09345e-06
1.09278e-06
1.08968e-06
1.08774e-06
1.08666e-06
1.08621e-06
1.08627e-06
1.08685e-06
1.0881e-06
1.09029e-06
1.09363e-06
1.10165e-06
1.09038e-06
1.08774e-06
1.08616e-06
1.08527e-06
1.08489e-06
1.08494e-06
1.08543e-06
1.08646e-06
1.08825e-06
1.09121e-06
1.10116e-06
1.09257e-06
1.08897e-06
1.08666e-06
1.08527e-06
1.08448e-06
1.08414e-06
1.08419e-06
1.08463e-06
1.08555e-06
1.08712e-06
1.08974e-06
1.09598e-06
1.09188e-06
1.08839e-06
1.08621e-06
1.08489e-06
1.08414e-06
1.08382e-06
1.08386e-06
1.08428e-06
1.08516e-06
1.08665e-06
1.08913e-06
1.09444e-06
1.09194e-06
1.08846e-06
1.08627e-06
1.08494e-06
1.08419e-06
1.08386e-06
1.08391e-06
1.08433e-06
1.08521e-06
1.08672e-06
1.08922e-06
1.09474e-06
1.09288e-06
1.08922e-06
1.08685e-06
1.08543e-06
1.08463e-06
1.08428e-06
1.08433e-06
1.08478e-06
1.08572e-06
1.08734e-06
1.09003e-06
1.09628e-06
1.10252e-06
1.09084e-06
1.0881e-06
1.08646e-06
1.08555e-06
1.08516e-06
1.08521e-06
1.08572e-06
1.08679e-06
1.08867e-06
1.09173e-06
1.10103e-06
1.09345e-06
1.09029e-06
1.08825e-06
1.08712e-06
1.08665e-06
1.08672e-06
1.08734e-06
1.08867e-06
1.09098e-06
1.09695e-06
1.09363e-06
1.09121e-06
1.08974e-06
1.08913e-06
1.08922e-06
1.09003e-06
1.09173e-06
1.09695e-06
1.10116e-06
1.09598e-06
1.09444e-06
1.09474e-06
1.09628e-06
1.10103e-06
1.07689e-06
1.07618e-06
1.07615e-06
1.0762e-06
1.07691e-06
1.07678e-06
1.07693e-06
1.07638e-06
1.07603e-06
1.07481e-06
1.07479e-06
1.07481e-06
1.07619e-06
1.07643e-06
1.07697e-06
1.07638e-06
1.07601e-06
1.07485e-06
1.0748e-06
1.07485e-06
1.0748e-06
1.07485e-06
1.07617e-06
1.07642e-06
1.07695e-06
1.07689e-06
1.07603e-06
1.07485e-06
1.07479e-06
1.07482e-06
1.0748e-06
1.07482e-06
1.07479e-06
1.07485e-06
1.07617e-06
1.07645e-06
1.07698e-06
1.07618e-06
1.07481e-06
1.0748e-06
1.07482e-06
1.07478e-06
1.07478e-06
1.07478e-06
1.07482e-06
1.0748e-06
1.07481e-06
1.0766e-06
1.07715e-06
1.07615e-06
1.07479e-06
1.07485e-06
1.0748e-06
1.07478e-06
1.07477e-06
1.07478e-06
1.0748e-06
1.07485e-06
1.07479e-06
1.07662e-06
1.07708e-06
1.0762e-06
1.07481e-06
1.0748e-06
1.07482e-06
1.07478e-06
1.07478e-06
1.07478e-06
1.07482e-06
1.0748e-06
1.07481e-06
1.07662e-06
1.0771e-06
1.07691e-06
1.07619e-06
1.07485e-06
1.07479e-06
1.07482e-06
1.0748e-06
1.07482e-06
1.07479e-06
1.07485e-06
1.07637e-06
1.07651e-06
1.07711e-06
1.07678e-06
1.07643e-06
1.07617e-06
1.07485e-06
1.0748e-06
1.07485e-06
1.0748e-06
1.07485e-06
1.07633e-06
1.07648e-06
1.07648e-06
1.07697e-06
1.07642e-06
1.07617e-06
1.07481e-06
1.07479e-06
1.07481e-06
1.07637e-06
1.07648e-06
1.07652e-06
1.07707e-06
1.07695e-06
1.07645e-06
1.0766e-06
1.07662e-06
1.07662e-06
1.07651e-06
1.07648e-06
1.07707e-06
1.07698e-06
1.07715e-06
1.07708e-06
1.0771e-06
1.07711e-06
1.06774e-06
1.06699e-06
1.06693e-06
1.06697e-06
1.06774e-06
1.06777e-06
1.06776e-06
1.0671e-06
1.06669e-06
1.06551e-06
1.06551e-06
1.06551e-06
1.06685e-06
1.06713e-06
1.06776e-06
1.0671e-06
1.06667e-06
1.06555e-06
1.06555e-06
1.06559e-06
1.06555e-06
1.06555e-06
1.06685e-06
1.06713e-06
1.06776e-06
1.06774e-06
1.06669e-06
1.06555e-06
1.06557e-06
1.06562e-06
1.06561e-06
1.06562e-06
1.06557e-06
1.06555e-06
1.06686e-06
1.06719e-06
1.06779e-06
1.06699e-06
1.06551e-06
1.06555e-06
1.06562e-06
1.06562e-06
1.06564e-06
1.06562e-06
1.06562e-06
1.06555e-06
1.06551e-06
1.06726e-06
1.06793e-06
1.06693e-06
1.06551e-06
1.06559e-06
1.06561e-06
1.06564e-06
1.06565e-06
1.06564e-06
1.06561e-06
1.06559e-06
1.06551e-06
1.06726e-06
1.06795e-06
1.06697e-06
1.06551e-06
1.06555e-06
1.06562e-06
1.06562e-06
1.06564e-06
1.06562e-06
1.06562e-06
1.06555e-06
1.06551e-06
1.06726e-06
1.06795e-06
1.06774e-06
1.06685e-06
1.06555e-06
1.06557e-06
1.06562e-06
1.06561e-06
1.06562e-06
1.06557e-06
1.06555e-06
1.06707e-06
1.06724e-06
1.06792e-06
1.06777e-06
1.06713e-06
1.06685e-06
1.06555e-06
1.06556e-06
1.06559e-06
1.06556e-06
1.06555e-06
1.06704e-06
1.06718e-06
1.06727e-06
1.06776e-06
1.06713e-06
1.06686e-06
1.06551e-06
1.06551e-06
1.06551e-06
1.06706e-06
1.06718e-06
1.06725e-06
1.0679e-06
1.06776e-06
1.06719e-06
1.06726e-06
1.06726e-06
1.06726e-06
1.06724e-06
1.06727e-06
1.0679e-06
1.06779e-06
1.06793e-06
1.06795e-06
1.06795e-06
1.06792e-06
1.05861e-06
1.05785e-06
1.05778e-06
1.05783e-06
1.05861e-06
1.05864e-06
1.05863e-06
1.05795e-06
1.05753e-06
1.05633e-06
1.05633e-06
1.05633e-06
1.05768e-06
1.05797e-06
1.05863e-06
1.05796e-06
1.0575e-06
1.05635e-06
1.05636e-06
1.05638e-06
1.05636e-06
1.05635e-06
1.05766e-06
1.05797e-06
1.05863e-06
1.05861e-06
1.05753e-06
1.05635e-06
1.05637e-06
1.0564e-06
1.05641e-06
1.05641e-06
1.05637e-06
1.05635e-06
1.05768e-06
1.05805e-06
1.05866e-06
1.05785e-06
1.05633e-06
1.05636e-06
1.05641e-06
1.05642e-06
1.05644e-06
1.05642e-06
1.05641e-06
1.05636e-06
1.05633e-06
1.0581e-06
1.0588e-06
1.05778e-06
1.05633e-06
1.05638e-06
1.05641e-06
1.05644e-06
1.05644e-06
1.05644e-06
1.05641e-06
1.05638e-06
1.05633e-06
1.0581e-06
1.05881e-06
1.05783e-06
1.05633e-06
1.05636e-06
1.05641e-06
1.05642e-06
1.05644e-06
1.05642e-06
1.05641e-06
1.05636e-06
1.05633e-06
1.0581e-06
1.05882e-06
1.05861e-06
1.05768e-06
1.05635e-06
1.05637e-06
1.05641e-06
1.05641e-06
1.05641e-06
1.05637e-06
1.05635e-06
1.05789e-06
1.0581e-06
1.05879e-06
1.05864e-06
1.05797e-06
1.05766e-06
1.05635e-06
1.05636e-06
1.05638e-06
1.05636e-06
1.05635e-06
1.05787e-06
1.05802e-06
1.05814e-06
1.05863e-06
1.05797e-06
1.05768e-06
1.05633e-06
1.05633e-06
1.05633e-06
1.05789e-06
1.05802e-06
1.05812e-06
1.05877e-06
1.05863e-06
1.05805e-06
1.0581e-06
1.0581e-06
1.0581e-06
1.0581e-06
1.05814e-06
1.05877e-06
1.05866e-06
1.0588e-06
1.05881e-06
1.05882e-06
1.05879e-06
1.04948e-06
1.04871e-06
1.04865e-06
1.04869e-06
1.04948e-06
1.04951e-06
1.0495e-06
1.04882e-06
1.04838e-06
1.04717e-06
1.04718e-06
1.04717e-06
1.04853e-06
1.04883e-06
1.0495e-06
1.04882e-06
1.04835e-06
1.04719e-06
1.0472e-06
1.0472e-06
1.0472e-06
1.04719e-06
1.04851e-06
1.04883e-06
1.0495e-06
1.04948e-06
1.04838e-06
1.04719e-06
1.0472e-06
1.04722e-06
1.04722e-06
1.04722e-06
1.0472e-06
1.04719e-06
1.04854e-06
1.04892e-06
1.04953e-06
1.04871e-06
1.04717e-06
1.0472e-06
1.04722e-06
1.04723e-06
1.04724e-06
1.04723e-06
1.04722e-06
1.0472e-06
1.04717e-06
1.04897e-06
1.04967e-06
1.04865e-06
1.04718e-06
1.0472e-06
1.04722e-06
1.04724e-06
1.04725e-06
1.04724e-06
1.04722e-06
1.0472e-06
1.04718e-06
1.04896e-06
1.04968e-06
1.04869e-06
1.04717e-06
1.0472e-06
1.04722e-06
1.04723e-06
1.04724e-06
1.04723e-06
1.04722e-06
1.0472e-06
1.04717e-06
1.04896e-06
1.04968e-06
1.04948e-06
1.04853e-06
1.04719e-06
1.0472e-06
1.04722e-06
1.04722e-06
1.04722e-06
1.0472e-06
1.04719e-06
1.04875e-06
1.04896e-06
1.04966e-06
1.04951e-06
1.04883e-06
1.04851e-06
1.04719e-06
1.0472e-06
1.0472e-06
1.0472e-06
1.04719e-06
1.04872e-06
1.04888e-06
1.04901e-06
1.0495e-06
1.04883e-06
1.04854e-06
1.04717e-06
1.04718e-06
1.04717e-06
1.04875e-06
1.04888e-06
1.04898e-06
1.04964e-06
1.0495e-06
1.04892e-06
1.04897e-06
1.04896e-06
1.04896e-06
1.04896e-06
1.04901e-06
1.04964e-06
1.04953e-06
1.04967e-06
1.04968e-06
1.04968e-06
1.04966e-06
1.04034e-06
1.03958e-06
1.03951e-06
1.03956e-06
1.04035e-06
1.04037e-06
1.04036e-06
1.03968e-06
1.03924e-06
1.03803e-06
1.03803e-06
1.03803e-06
1.03939e-06
1.0397e-06
1.04036e-06
1.03968e-06
1.03921e-06
1.03804e-06
1.03804e-06
1.03805e-06
1.03804e-06
1.03804e-06
1.03937e-06
1.0397e-06
1.04037e-06
1.04034e-06
1.03924e-06
1.03804e-06
1.03805e-06
1.03806e-06
1.03806e-06
1.03806e-06
1.03805e-06
1.03804e-06
1.0394e-06
1.03978e-06
1.04039e-06
1.03957e-06
1.03803e-06
1.03804e-06
1.03806e-06
1.03807e-06
1.03807e-06
1.03807e-06
1.03806e-06
1.03804e-06
1.03803e-06
1.03983e-06
1.04053e-06
1.03951e-06
1.03803e-06
1.03805e-06
1.03806e-06
1.03807e-06
1.03807e-06
1.03807e-06
1.03806e-06
1.03805e-06
1.03803e-06
1.03982e-06
1.04055e-06
1.03956e-06
1.03803e-06
1.03804e-06
1.03806e-06
1.03807e-06
1.03807e-06
1.03807e-06
1.03806e-06
1.03804e-06
1.03803e-06
1.03982e-06
1.04055e-06
1.04035e-06
1.03939e-06
1.03804e-06
1.03805e-06
1.03806e-06
1.03806e-06
1.03806e-06
1.03805e-06
1.03804e-06
1.03961e-06
1.03983e-06
1.04053e-06
1.04037e-06
1.0397e-06
1.03937e-06
1.03804e-06
1.03804e-06
1.03805e-06
1.03804e-06
1.03804e-06
1.03958e-06
1.03975e-06
1.03987e-06
1.04036e-06
1.0397e-06
1.0394e-06
1.03803e-06
1.03803e-06
1.03803e-06
1.03961e-06
1.03975e-06
1.03985e-06
1.04051e-06
1.04037e-06
1.03978e-06
1.03983e-06
1.03982e-06
1.03982e-06
1.03983e-06
1.03987e-06
1.04051e-06
1.04039e-06
1.04053e-06
1.04055e-06
1.04055e-06
1.04053e-06
1.03121e-06
1.03044e-06
1.03038e-06
1.03042e-06
1.03121e-06
1.03124e-06
1.03123e-06
1.03055e-06
1.03011e-06
1.02889e-06
1.02889e-06
1.02889e-06
1.03026e-06
1.03056e-06
1.03123e-06
1.03055e-06
1.03007e-06
1.0289e-06
1.0289e-06
1.0289e-06
1.0289e-06
1.0289e-06
1.03024e-06
1.03056e-06
1.03123e-06
1.03121e-06
1.03011e-06
1.0289e-06
1.0289e-06
1.02891e-06
1.02891e-06
1.02891e-06
1.0289e-06
1.0289e-06
1.03026e-06
1.03065e-06
1.03126e-06
1.03044e-06
1.02889e-06
1.0289e-06
1.02891e-06
1.02891e-06
1.02891e-06
1.02891e-06
1.02891e-06
1.0289e-06
1.02889e-06
1.03069e-06
1.0314e-06
1.03038e-06
1.02889e-06
1.0289e-06
1.02891e-06
1.02891e-06
1.02892e-06
1.02891e-06
1.02891e-06
1.0289e-06
1.02889e-06
1.03068e-06
1.03141e-06
1.03042e-06
1.02889e-06
1.0289e-06
1.02891e-06
1.02891e-06
1.02891e-06
1.02891e-06
1.02891e-06
1.0289e-06
1.02889e-06
1.03069e-06
1.03141e-06
1.03121e-06
1.03026e-06
1.0289e-06
1.0289e-06
1.02891e-06
1.02891e-06
1.02891e-06
1.0289e-06
1.0289e-06
1.03047e-06
1.03069e-06
1.03139e-06
1.03124e-06
1.03056e-06
1.03024e-06
1.0289e-06
1.0289e-06
1.0289e-06
1.0289e-06
1.0289e-06
1.03044e-06
1.03061e-06
1.03074e-06
1.03123e-06
1.03056e-06
1.03026e-06
1.02889e-06
1.02889e-06
1.02889e-06
1.03047e-06
1.03061e-06
1.03071e-06
1.03137e-06
1.03123e-06
1.03065e-06
1.03069e-06
1.03068e-06
1.03069e-06
1.03069e-06
1.03074e-06
1.03137e-06
1.03126e-06
1.0314e-06
1.03141e-06
1.03141e-06
1.03139e-06
1.02207e-06
1.0213e-06
1.02124e-06
1.02129e-06
1.02208e-06
1.0221e-06
1.02209e-06
1.02141e-06
1.02097e-06
1.01975e-06
1.01976e-06
1.01975e-06
1.02112e-06
1.02143e-06
1.02209e-06
1.02141e-06
1.02094e-06
1.01976e-06
1.01976e-06
1.01976e-06
1.01976e-06
1.01976e-06
1.0211e-06
1.02142e-06
1.0221e-06
1.02207e-06
1.02097e-06
1.01976e-06
1.01976e-06
1.01976e-06
1.01976e-06
1.01976e-06
1.01976e-06
1.01976e-06
1.02112e-06
1.02151e-06
1.02212e-06
1.0213e-06
1.01975e-06
1.01976e-06
1.01976e-06
1.01977e-06
1.01977e-06
1.01977e-06
1.01976e-06
1.01976e-06
1.01975e-06
1.02156e-06
1.02226e-06
1.02124e-06
1.01976e-06
1.01976e-06
1.01976e-06
1.01977e-06
1.01977e-06
1.01977e-06
1.01976e-06
1.01976e-06
1.01976e-06
1.02155e-06
1.02228e-06
1.02129e-06
1.01975e-06
1.01976e-06
1.01976e-06
1.01977e-06
1.01977e-06
1.01977e-06
1.01976e-06
1.01976e-06
1.01975e-06
1.02155e-06
1.02228e-06
1.02208e-06
1.02112e-06
1.01976e-06
1.01976e-06
1.01976e-06
1.01976e-06
1.01976e-06
1.01976e-06
1.01976e-06
1.02134e-06
1.02156e-06
1.02226e-06
1.02211e-06
1.02143e-06
1.0211e-06
1.01976e-06
1.01976e-06
1.01976e-06
1.01976e-06
1.01976e-06
1.0213e-06
1.02147e-06
1.0216e-06
1.02209e-06
1.02143e-06
1.02112e-06
1.01975e-06
1.01976e-06
1.01975e-06
1.02134e-06
1.02147e-06
1.02158e-06
1.02224e-06
1.0221e-06
1.02151e-06
1.02156e-06
1.02155e-06
1.02155e-06
1.02156e-06
1.0216e-06
1.02224e-06
1.02212e-06
1.02226e-06
1.02228e-06
1.02228e-06
1.02226e-06
1.01294e-06
1.01217e-06
1.0121e-06
1.01215e-06
1.01294e-06
1.01297e-06
1.01296e-06
1.01228e-06
1.01184e-06
1.01062e-06
1.01062e-06
1.01062e-06
1.01199e-06
1.01229e-06
1.01296e-06
1.01228e-06
1.0118e-06
1.01062e-06
1.01062e-06
1.01062e-06
1.01062e-06
1.01062e-06
1.01196e-06
1.01229e-06
1.01296e-06
1.01294e-06
1.01184e-06
1.01062e-06
1.01062e-06
1.01062e-06
1.01062e-06
1.01062e-06
1.01062e-06
1.01062e-06
1.01199e-06
1.01237e-06
1.01299e-06
1.01217e-06
1.01062e-06
1.01062e-06
1.01062e-06
1.01062e-06
1.01063e-06
1.01062e-06
1.01062e-06
1.01062e-06
1.01062e-06
1.01242e-06
1.01313e-06
1.0121e-06
1.01062e-06
1.01062e-06
1.01062e-06
1.01063e-06
1.01063e-06
1.01063e-06
1.01062e-06
1.01062e-06
1.01062e-06
1.01241e-06
1.01314e-06
1.01215e-06
1.01062e-06
1.01062e-06
1.01062e-06
1.01062e-06
1.01063e-06
1.01062e-06
1.01062e-06
1.01062e-06
1.01062e-06
1.01242e-06
1.01314e-06
1.01294e-06
1.01199e-06
1.01062e-06
1.01062e-06
1.01062e-06
1.01062e-06
1.01062e-06
1.01062e-06
1.01062e-06
1.0122e-06
1.01242e-06
1.01312e-06
1.01297e-06
1.01229e-06
1.01196e-06
1.01062e-06
1.01062e-06
1.01062e-06
1.01062e-06
1.01062e-06
1.01217e-06
1.01234e-06
1.01247e-06
1.01296e-06
1.01229e-06
1.01199e-06
1.01062e-06
1.01062e-06
1.01062e-06
1.0122e-06
1.01234e-06
1.01244e-06
1.0131e-06
1.01296e-06
1.01237e-06
1.01242e-06
1.01241e-06
1.01242e-06
1.01242e-06
1.01247e-06
1.0131e-06
1.01299e-06
1.01313e-06
1.01314e-06
1.01314e-06
1.01312e-06
1.0038e-06
1.00303e-06
1.00297e-06
1.00302e-06
1.0038e-06
1.00383e-06
1.00382e-06
1.00314e-06
1.0027e-06
1.00148e-06
1.00148e-06
1.00148e-06
1.00285e-06
1.00316e-06
1.00382e-06
1.00314e-06
1.00266e-06
1.00148e-06
1.00148e-06
1.00148e-06
1.00148e-06
1.00148e-06
1.00283e-06
1.00315e-06
1.00383e-06
1.0038e-06
1.0027e-06
1.00148e-06
1.00148e-06
1.00148e-06
1.00149e-06
1.00148e-06
1.00148e-06
1.00148e-06
1.00285e-06
1.00324e-06
1.00385e-06
1.00303e-06
1.00148e-06
1.00148e-06
1.00148e-06
1.00149e-06
1.00149e-06
1.00149e-06
1.00148e-06
1.00148e-06
1.00148e-06
1.00329e-06
1.00399e-06
1.00297e-06
1.00148e-06
1.00148e-06
1.00149e-06
1.00149e-06
1.00149e-06
1.00149e-06
1.00149e-06
1.00148e-06
1.00148e-06
1.00328e-06
1.00401e-06
1.00302e-06
1.00148e-06
1.00148e-06
1.00148e-06
1.00149e-06
1.00149e-06
1.00149e-06
1.00148e-06
1.00148e-06
1.00148e-06
1.00328e-06
1.00401e-06
1.0038e-06
1.00285e-06
1.00148e-06
1.00148e-06
1.00148e-06
1.00149e-06
1.00148e-06
1.00148e-06
1.00148e-06
1.00306e-06
1.00328e-06
1.00399e-06
1.00383e-06
1.00316e-06
1.00283e-06
1.00148e-06
1.00148e-06
1.00148e-06
1.00148e-06
1.00148e-06
1.00303e-06
1.0032e-06
1.00333e-06
1.00382e-06
1.00315e-06
1.00285e-06
1.00148e-06
1.00148e-06
1.00148e-06
1.00306e-06
1.0032e-06
1.00331e-06
1.00397e-06
1.00383e-06
1.00324e-06
1.00329e-06
1.00328e-06
1.00328e-06
1.00328e-06
1.00333e-06
1.00397e-06
1.00385e-06
1.00399e-06
1.00401e-06
1.00401e-06
1.00399e-06
9.94666e-07
9.93897e-07
9.93832e-07
9.93881e-07
9.94669e-07
9.94698e-07
9.94686e-07
9.94006e-07
9.93564e-07
9.92346e-07
9.92347e-07
9.92346e-07
9.93714e-07
9.9402e-07
9.94686e-07
9.94006e-07
9.93528e-07
9.92346e-07
9.92348e-07
9.92347e-07
9.92348e-07
9.92346e-07
9.93691e-07
9.94018e-07
9.9469e-07
9.94666e-07
9.93564e-07
9.92346e-07
9.92348e-07
9.92348e-07
9.92348e-07
9.92348e-07
9.92348e-07
9.92346e-07
9.93716e-07
9.94103e-07
9.94715e-07
9.93896e-07
9.92346e-07
9.92348e-07
9.92348e-07
9.92349e-07
9.92348e-07
9.92349e-07
9.92348e-07
9.92348e-07
9.92346e-07
9.94152e-07
9.94858e-07
9.93832e-07
9.92347e-07
9.92347e-07
9.92348e-07
9.92348e-07
9.92349e-07
9.92348e-07
9.92348e-07
9.92347e-07
9.92347e-07
9.9414e-07
9.94871e-07
9.93881e-07
9.92346e-07
9.92348e-07
9.92348e-07
9.92349e-07
9.92348e-07
9.92349e-07
9.92348e-07
9.92348e-07
9.92346e-07
9.94144e-07
9.94872e-07
9.94669e-07
9.93714e-07
9.92346e-07
9.92348e-07
9.92348e-07
9.92348e-07
9.92348e-07
9.92348e-07
9.92346e-07
9.93928e-07
9.94148e-07
9.94851e-07
9.94698e-07
9.9402e-07
9.93691e-07
9.92346e-07
9.92348e-07
9.92347e-07
9.92348e-07
9.92346e-07
9.93895e-07
9.94067e-07
9.94197e-07
9.94686e-07
9.94018e-07
9.93716e-07
9.92346e-07
9.92347e-07
9.92346e-07
9.93928e-07
9.94067e-07
9.94172e-07
9.94833e-07
9.9469e-07
9.94103e-07
9.94152e-07
9.9414e-07
9.94144e-07
9.94148e-07
9.94197e-07
9.94833e-07
9.94715e-07
9.94858e-07
9.94872e-07
9.94872e-07
9.94851e-07
9.8553e-07
9.84761e-07
9.84697e-07
9.84745e-07
9.85533e-07
9.85562e-07
9.8555e-07
9.8487e-07
9.84428e-07
9.8321e-07
9.8321e-07
9.8321e-07
9.84578e-07
9.84885e-07
9.85551e-07
9.8487e-07
9.84392e-07
9.8321e-07
9.83212e-07
9.83211e-07
9.83212e-07
9.8321e-07
9.84555e-07
9.84882e-07
9.85554e-07
9.8553e-07
9.84428e-07
9.8321e-07
9.83211e-07
9.83211e-07
9.83211e-07
9.83211e-07
9.83211e-07
9.8321e-07
9.8458e-07
9.84967e-07
9.85579e-07
9.84761e-07
9.8321e-07
9.83212e-07
9.83211e-07
9.83212e-07
9.83211e-07
9.83212e-07
9.83211e-07
9.83212e-07
9.8321e-07
9.85016e-07
9.85722e-07
9.84696e-07
9.8321e-07
9.83211e-07
9.83211e-07
9.83211e-07
9.83212e-07
9.83211e-07
9.83211e-07
9.83211e-07
9.8321e-07
9.85005e-07
9.85736e-07
9.84745e-07
9.8321e-07
9.83212e-07
9.83211e-07
9.83212e-07
9.83211e-07
9.83212e-07
9.83211e-07
9.83212e-07
9.8321e-07
9.85009e-07
9.85737e-07
9.85533e-07
9.84578e-07
9.8321e-07
9.83211e-07
9.83211e-07
9.83211e-07
9.83211e-07
9.83211e-07
9.8321e-07
9.84792e-07
9.85013e-07
9.85715e-07
9.85562e-07
9.84885e-07
9.84555e-07
9.8321e-07
9.83212e-07
9.83211e-07
9.83212e-07
9.8321e-07
9.8476e-07
9.84932e-07
9.85061e-07
9.85551e-07
9.84882e-07
9.8458e-07
9.8321e-07
9.8321e-07
9.8321e-07
9.84793e-07
9.84932e-07
9.85037e-07
9.85698e-07
9.85554e-07
9.84967e-07
9.85016e-07
9.85005e-07
9.85009e-07
9.85013e-07
9.85061e-07
9.85698e-07
9.85579e-07
9.85722e-07
9.85736e-07
9.85737e-07
9.85715e-07
9.76395e-07
9.75625e-07
9.75561e-07
9.75609e-07
9.76397e-07
9.76427e-07
9.76415e-07
9.75734e-07
9.75292e-07
9.74074e-07
9.74075e-07
9.74074e-07
9.75442e-07
9.75749e-07
9.76415e-07
9.75734e-07
9.75256e-07
9.74075e-07
9.74076e-07
9.74075e-07
9.74076e-07
9.74075e-07
9.75419e-07
9.75746e-07
9.76418e-07
9.76395e-07
9.75292e-07
9.74075e-07
9.74075e-07
9.74075e-07
9.74075e-07
9.74075e-07
9.74075e-07
9.74075e-07
9.75444e-07
9.75832e-07
9.76443e-07
9.75625e-07
9.74074e-07
9.74076e-07
9.74075e-07
9.74076e-07
9.74075e-07
9.74076e-07
9.74075e-07
9.74076e-07
9.74074e-07
9.7588e-07
9.76586e-07
9.75561e-07
9.74075e-07
9.74075e-07
9.74075e-07
9.74075e-07
9.74076e-07
9.74075e-07
9.74075e-07
9.74075e-07
9.74075e-07
9.75869e-07
9.766e-07
9.75609e-07
9.74074e-07
9.74076e-07
9.74075e-07
9.74076e-07
9.74075e-07
9.74076e-07
9.74075e-07
9.74076e-07
9.74074e-07
9.75873e-07
9.76601e-07
9.76397e-07
9.75442e-07
9.74075e-07
9.74075e-07
9.74075e-07
9.74075e-07
9.74075e-07
9.74075e-07
9.74075e-07
9.75657e-07
9.75877e-07
9.76579e-07
9.76427e-07
9.75749e-07
9.75419e-07
9.74075e-07
9.74076e-07
9.74075e-07
9.74076e-07
9.74075e-07
9.75623e-07
9.75796e-07
9.75926e-07
9.76415e-07
9.75746e-07
9.75444e-07
9.74074e-07
9.74075e-07
9.74074e-07
9.75657e-07
9.75796e-07
9.75901e-07
9.76562e-07
9.76418e-07
9.75832e-07
9.7588e-07
9.75869e-07
9.75873e-07
9.75877e-07
9.75925e-07
9.76562e-07
9.76443e-07
9.76586e-07
9.766e-07
9.76601e-07
9.76579e-07
9.67259e-07
9.66489e-07
9.66425e-07
9.66473e-07
9.67261e-07
9.67291e-07
9.67279e-07
9.66598e-07
9.66156e-07
9.64938e-07
9.64939e-07
9.64938e-07
9.66306e-07
9.66613e-07
9.67279e-07
9.66599e-07
9.6612e-07
9.64939e-07
9.6494e-07
9.64939e-07
9.6494e-07
9.64939e-07
9.66283e-07
9.66611e-07
9.67283e-07
9.67259e-07
9.66156e-07
9.64939e-07
9.6494e-07
9.64939e-07
9.64939e-07
9.64939e-07
9.6494e-07
9.64939e-07
9.66308e-07
9.66696e-07
9.67308e-07
9.66489e-07
9.64938e-07
9.6494e-07
9.64939e-07
9.6494e-07
9.64939e-07
9.6494e-07
9.64939e-07
9.6494e-07
9.64938e-07
9.66744e-07
9.6745e-07
9.66425e-07
9.64939e-07
9.64939e-07
9.64939e-07
9.64939e-07
9.6494e-07
9.64939e-07
9.64939e-07
9.64939e-07
9.64939e-07
9.66733e-07
9.67464e-07
9.66473e-07
9.64938e-07
9.6494e-07
9.64939e-07
9.6494e-07
9.64939e-07
9.6494e-07
9.64939e-07
9.6494e-07
9.64938e-07
9.66737e-07
9.67465e-07
9.67261e-07
9.66306e-07
9.64939e-07
9.6494e-07
9.64939e-07
9.64939e-07
9.64939e-07
9.6494e-07
9.64939e-07
9.66521e-07
9.66741e-07
9.67444e-07
9.67291e-07
9.66613e-07
9.66283e-07
9.64939e-07
9.6494e-07
9.64939e-07
9.6494e-07
9.64939e-07
9.66488e-07
9.6666e-07
9.6679e-07
9.67279e-07
9.66611e-07
9.66308e-07
9.64938e-07
9.64939e-07
9.64938e-07
9.66521e-07
9.6666e-07
9.66765e-07
9.67426e-07
9.67283e-07
9.66696e-07
9.66744e-07
9.66733e-07
9.66737e-07
9.66741e-07
9.6679e-07
9.67426e-07
9.67308e-07
9.6745e-07
9.67464e-07
9.67465e-07
9.67444e-07
9.58123e-07
9.57354e-07
9.57289e-07
9.57338e-07
9.58126e-07
9.58155e-07
9.58143e-07
9.57463e-07
9.57021e-07
9.55803e-07
9.55803e-07
9.55803e-07
9.57171e-07
9.57477e-07
9.58143e-07
9.57463e-07
9.56985e-07
9.55803e-07
9.55804e-07
9.55803e-07
9.55804e-07
9.55803e-07
9.57148e-07
9.57475e-07
9.58147e-07
9.58123e-07
9.57021e-07
9.55803e-07
9.55804e-07
9.55803e-07
9.55803e-07
9.55803e-07
9.55804e-07
9.55803e-07
9.57173e-07
9.5756e-07
9.58172e-07
9.57354e-07
9.55803e-07
9.55804e-07
9.55803e-07
9.55804e-07
9.55803e-07
9.55804e-07
9.55803e-07
9.55804e-07
9.55803e-07
9.57609e-07
9.58315e-07
9.57289e-07
9.55803e-07
9.55803e-07
9.55803e-07
9.55803e-07
9.55803e-07
9.55803e-07
9.55803e-07
9.55803e-07
9.55803e-07
9.57597e-07
9.58328e-07
9.57338e-07
9.55803e-07
9.55804e-07
9.55803e-07
9.55804e-07
9.55803e-07
9.55804e-07
9.55803e-07
9.55804e-07
9.55803e-07
9.57601e-07
9.58329e-07
9.58126e-07
9.57171e-07
9.55803e-07
9.55804e-07
9.55803e-07
9.55803e-07
9.55803e-07
9.55804e-07
9.55803e-07
9.57385e-07
9.57605e-07
9.58308e-07
9.58155e-07
9.57477e-07
9.57148e-07
9.55803e-07
9.55804e-07
9.55803e-07
9.55804e-07
9.55803e-07
9.57352e-07
9.57524e-07
9.57654e-07
9.58144e-07
9.57475e-07
9.57173e-07
9.55803e-07
9.55803e-07
9.55803e-07
9.57385e-07
9.57524e-07
9.5763e-07
9.5829e-07
9.58147e-07
9.5756e-07
9.57609e-07
9.57597e-07
9.57601e-07
9.57605e-07
9.57654e-07
9.5829e-07
9.58172e-07
9.58315e-07
9.58329e-07
9.58329e-07
9.58308e-07
9.48987e-07
9.48218e-07
9.48154e-07
9.48202e-07
9.4899e-07
9.49019e-07
9.49007e-07
9.48327e-07
9.47885e-07
9.46667e-07
9.46667e-07
9.46667e-07
9.48035e-07
9.48342e-07
9.49008e-07
9.48327e-07
9.47849e-07
9.46667e-07
9.46669e-07
9.46668e-07
9.46669e-07
9.46667e-07
9.48012e-07
9.48339e-07
9.49011e-07
9.48987e-07
9.47885e-07
9.46667e-07
9.46668e-07
9.46667e-07
9.46668e-07
9.46667e-07
9.46668e-07
9.46667e-07
9.48037e-07
9.48424e-07
9.49036e-07
9.48218e-07
9.46667e-07
9.46669e-07
9.46667e-07
9.46668e-07
9.46667e-07
9.46668e-07
9.46667e-07
9.46669e-07
9.46667e-07
9.48473e-07
9.49179e-07
9.48154e-07
9.46667e-07
9.46668e-07
9.46668e-07
9.46667e-07
9.46668e-07
9.46667e-07
9.46668e-07
9.46668e-07
9.46667e-07
9.48462e-07
9.49193e-07
9.48202e-07
9.46667e-07
9.46669e-07
9.46667e-07
9.46668e-07
9.46667e-07
9.46668e-07
9.46667e-07
9.46669e-07
9.46667e-07
9.48466e-07
9.49193e-07
9.4899e-07
9.48035e-07
9.46667e-07
9.46668e-07
9.46667e-07
9.46668e-07
9.46667e-07
9.46668e-07
9.46667e-07
9.48249e-07
9.4847e-07
9.49172e-07
9.4902e-07
9.48342e-07
9.48012e-07
9.46667e-07
9.46669e-07
9.46668e-07
9.46669e-07
9.46667e-07
9.48216e-07
9.48389e-07
9.48518e-07
9.49008e-07
9.48339e-07
9.48037e-07
9.46667e-07
9.46667e-07
9.46667e-07
9.48249e-07
9.48389e-07
9.48494e-07
9.49155e-07
9.49011e-07
9.48424e-07
9.48473e-07
9.48462e-07
9.48466e-07
9.4847e-07
9.48518e-07
9.49154e-07
9.49036e-07
9.49179e-07
9.49193e-07
9.49193e-07
9.49172e-07
9.39852e-07
9.39082e-07
9.39018e-07
9.39066e-07
9.39854e-07
9.39884e-07
9.39872e-07
9.39191e-07
9.38749e-07
9.37531e-07
9.37532e-07
9.37531e-07
9.38899e-07
9.39206e-07
9.39872e-07
9.39191e-07
9.38713e-07
9.37531e-07
9.37533e-07
9.37532e-07
9.37533e-07
9.37531e-07
9.38876e-07
9.39203e-07
9.39875e-07
9.39852e-07
9.38749e-07
9.37531e-07
9.37532e-07
9.37531e-07
9.37532e-07
9.37531e-07
9.37532e-07
9.37531e-07
9.38901e-07
9.39289e-07
9.399e-07
9.39082e-07
9.37531e-07
9.37533e-07
9.37531e-07
9.37533e-07
9.37532e-07
9.37533e-07
9.37531e-07
9.37533e-07
9.37531e-07
9.39337e-07
9.40043e-07
9.39018e-07
9.37532e-07
9.37532e-07
9.37532e-07
9.37532e-07
9.37532e-07
9.37532e-07
9.37532e-07
9.37532e-07
9.37532e-07
9.39326e-07
9.40057e-07
9.39066e-07
9.37531e-07
9.37533e-07
9.37531e-07
9.37533e-07
9.37532e-07
9.37533e-07
9.37531e-07
9.37533e-07
9.37531e-07
9.3933e-07
9.40058e-07
9.39854e-07
9.38899e-07
9.37531e-07
9.37532e-07
9.37531e-07
9.37532e-07
9.37531e-07
9.37532e-07
9.37531e-07
9.39114e-07
9.39334e-07
9.40036e-07
9.39884e-07
9.39206e-07
9.38876e-07
9.37531e-07
9.37533e-07
9.37532e-07
9.37533e-07
9.37531e-07
9.3908e-07
9.39253e-07
9.39382e-07
9.39872e-07
9.39203e-07
9.38901e-07
9.37531e-07
9.37532e-07
9.37531e-07
9.39114e-07
9.39253e-07
9.39358e-07
9.40019e-07
9.39875e-07
9.39289e-07
9.39337e-07
9.39326e-07
9.3933e-07
9.39334e-07
9.39382e-07
9.40019e-07
9.399e-07
9.40043e-07
9.40057e-07
9.40058e-07
9.40036e-07
9.30716e-07
9.29946e-07
9.29882e-07
9.2993e-07
9.30718e-07
9.30748e-07
9.30736e-07
9.30055e-07
9.29613e-07
9.28395e-07
9.28396e-07
9.28395e-07
9.29763e-07
9.3007e-07
9.30736e-07
9.30055e-07
9.29577e-07
9.28396e-07
9.28397e-07
9.28396e-07
9.28397e-07
9.28396e-07
9.2974e-07
9.30068e-07
9.3074e-07
9.30716e-07
9.29613e-07
9.28396e-07
9.28396e-07
9.28396e-07
9.28396e-07
9.28396e-07
9.28396e-07
9.28396e-07
9.29765e-07
9.30153e-07
9.30765e-07
9.29946e-07
9.28395e-07
9.28397e-07
9.28396e-07
9.28397e-07
9.28396e-07
9.28397e-07
9.28396e-07
9.28397e-07
9.28395e-07
9.30201e-07
9.30907e-07
9.29882e-07
9.28396e-07
9.28396e-07
9.28396e-07
9.28396e-07
9.28396e-07
9.28396e-07
9.28396e-07
9.28396e-07
9.28396e-07
9.3019e-07
9.30921e-07
9.2993e-07
9.28395e-07
9.28397e-07
9.28396e-07
9.28397e-07
9.28396e-07
9.28397e-07
9.28396e-07
9.28397e-07
9.28395e-07
9.30194e-07
9.30922e-07
9.30718e-07
9.29763e-07
9.28396e-07
9.28396e-07
9.28396e-07
9.28396e-07
9.28396e-07
9.28396e-07
9.28396e-07
9.29978e-07
9.30198e-07
9.30901e-07
9.30748e-07
9.3007e-07
9.2974e-07
9.28396e-07
9.28397e-07
9.28396e-07
9.28397e-07
9.28396e-07
9.29945e-07
9.30117e-07
9.30247e-07
9.30736e-07
9.30068e-07
9.29765e-07
9.28395e-07
9.28396e-07
9.28395e-07
9.29978e-07
9.30117e-07
9.30222e-07
9.30883e-07
9.3074e-07
9.30153e-07
9.30201e-07
9.3019e-07
9.30194e-07
9.30198e-07
9.30247e-07
9.30883e-07
9.30765e-07
9.30907e-07
9.30921e-07
9.30922e-07
9.30901e-07
9.2158e-07
9.2081e-07
9.20746e-07
9.20795e-07
9.21583e-07
9.21612e-07
9.216e-07
9.20919e-07
9.20477e-07
9.1926e-07
9.1926e-07
9.1926e-07
9.20628e-07
9.20934e-07
9.21601e-07
9.2092e-07
9.20441e-07
9.1926e-07
9.19261e-07
9.1926e-07
9.19261e-07
9.1926e-07
9.20605e-07
9.20932e-07
9.21604e-07
9.2158e-07
9.20477e-07
9.1926e-07
9.19261e-07
9.1926e-07
9.1926e-07
9.1926e-07
9.19261e-07
9.1926e-07
9.2063e-07
9.21017e-07
9.21629e-07
9.2081e-07
9.19259e-07
9.19261e-07
9.1926e-07
9.19261e-07
9.1926e-07
9.19261e-07
9.1926e-07
9.19261e-07
9.1926e-07
9.21066e-07
9.21772e-07
9.20746e-07
9.1926e-07
9.1926e-07
9.1926e-07
9.1926e-07
9.1926e-07
9.1926e-07
9.1926e-07
9.1926e-07
9.1926e-07
9.21054e-07
9.21786e-07
9.20795e-07
9.19259e-07
9.19261e-07
9.1926e-07
9.19261e-07
9.1926e-07
9.19261e-07
9.1926e-07
9.19261e-07
9.1926e-07
9.21058e-07
9.21786e-07
9.21583e-07
9.20627e-07
9.1926e-07
9.19261e-07
9.1926e-07
9.1926e-07
9.1926e-07
9.19261e-07
9.1926e-07
9.20842e-07
9.21062e-07
9.21765e-07
9.21612e-07
9.20934e-07
9.20605e-07
9.1926e-07
9.19261e-07
9.1926e-07
9.19261e-07
9.1926e-07
9.20809e-07
9.20981e-07
9.21111e-07
9.216e-07
9.20932e-07
9.20629e-07
9.1926e-07
9.1926e-07
9.1926e-07
9.20842e-07
9.20981e-07
9.21087e-07
9.21747e-07
9.21604e-07
9.21017e-07
9.21066e-07
9.21054e-07
9.21058e-07
9.21062e-07
9.21111e-07
9.21747e-07
9.21629e-07
9.21772e-07
9.21785e-07
9.21786e-07
9.21765e-07
9.12444e-07
9.11675e-07
9.11611e-07
9.11659e-07
9.12447e-07
9.12476e-07
9.12464e-07
9.11784e-07
9.11342e-07
9.10124e-07
9.10124e-07
9.10124e-07
9.11492e-07
9.11799e-07
9.12465e-07
9.11784e-07
9.11306e-07
9.10124e-07
9.10126e-07
9.10125e-07
9.10126e-07
9.10124e-07
9.11469e-07
9.11796e-07
9.12468e-07
9.12444e-07
9.11342e-07
9.10124e-07
9.10125e-07
9.10124e-07
9.10125e-07
9.10124e-07
9.10125e-07
9.10124e-07
9.11494e-07
9.11881e-07
9.12493e-07
9.11675e-07
9.10124e-07
9.10126e-07
9.10124e-07
9.10125e-07
9.10124e-07
9.10125e-07
9.10124e-07
9.10126e-07
9.10124e-07
9.1193e-07
9.12636e-07
9.1161e-07
9.10124e-07
9.10125e-07
9.10125e-07
9.10124e-07
9.10125e-07
9.10124e-07
9.10125e-07
9.10125e-07
9.10124e-07
9.11919e-07
9.1265e-07
9.11659e-07
9.10124e-07
9.10125e-07
9.10124e-07
9.10125e-07
9.10124e-07
9.10125e-07
9.10124e-07
9.10126e-07
9.10124e-07
9.11923e-07
9.1265e-07
9.12447e-07
9.11492e-07
9.10124e-07
9.10125e-07
9.10124e-07
9.10125e-07
9.10124e-07
9.10125e-07
9.10124e-07
9.11706e-07
9.11927e-07
9.12629e-07
9.12476e-07
9.11798e-07
9.11469e-07
9.10124e-07
9.10126e-07
9.10125e-07
9.10126e-07
9.10124e-07
9.11673e-07
9.11846e-07
9.11975e-07
9.12465e-07
9.11796e-07
9.11494e-07
9.10124e-07
9.10124e-07
9.10124e-07
9.11706e-07
9.11846e-07
9.11951e-07
9.12612e-07
9.12468e-07
9.11881e-07
9.1193e-07
9.11919e-07
9.11923e-07
9.11927e-07
9.11975e-07
9.12612e-07
9.12493e-07
9.12636e-07
9.1265e-07
9.1265e-07
9.12629e-07
9.03309e-07
9.02539e-07
9.02475e-07
9.02523e-07
9.03311e-07
9.03341e-07
9.03329e-07
9.02648e-07
9.02206e-07
9.00988e-07
9.00989e-07
9.00988e-07
9.02356e-07
9.02663e-07
9.03329e-07
9.02648e-07
9.0217e-07
9.00988e-07
9.0099e-07
9.00989e-07
9.0099e-07
9.00988e-07
9.02333e-07
9.0266e-07
9.03332e-07
9.03309e-07
9.02206e-07
9.00988e-07
9.00989e-07
9.00988e-07
9.00989e-07
9.00988e-07
9.00989e-07
9.00988e-07
9.02358e-07
9.02746e-07
9.03357e-07
9.02539e-07
9.00988e-07
9.0099e-07
9.00988e-07
9.0099e-07
9.00989e-07
9.0099e-07
9.00988e-07
9.0099e-07
9.00988e-07
9.02794e-07
9.035e-07
9.02475e-07
9.00989e-07
9.00989e-07
9.00989e-07
9.00989e-07
9.00989e-07
9.00989e-07
9.00989e-07
9.00989e-07
9.00989e-07
9.02783e-07
9.03514e-07
9.02523e-07
9.00988e-07
9.0099e-07
9.00988e-07
9.0099e-07
9.00989e-07
9.0099e-07
9.00988e-07
9.0099e-07