/*--------------------------------*- C++ -*----------------------------------*\
| =========                 |                                                 |
| \\      /  F ield         | OpenFOAM: The Open Source CFD Toolbox           |
|  \\    /   O peration     | Version:  v2012                                 |
|   \\  /    A nd           | Website:  www.openfoam.com                      |
|    \\/     M anipulation  |                                                 |
\*---------------------------------------------------------------------------*/
FoamFile
{
    version     2.0;
    format      ascii;
    class       volScalarField;
    location    "38";
    object      p;
}
// * * * * * * * * * * * * * * * * * * * * * * * * * * * * * * * * * * * * * //

dimensions      [0 2 -2 0 0 0 0];


internalField   nonuniform List<scalar> 
292667
(
1.3176e-06
1.30761e-06
1.30677e-06
1.30685e-06
1.30801e-06
1.31854e-06
1.30782e-06
1.30486e-06
1.30314e-06
1.30244e-06
1.30253e-06
1.30345e-06
1.30544e-06
1.30869e-06
1.30782e-06
1.30399e-06
1.30163e-06
1.30034e-06
1.29979e-06
1.29986e-06
1.30057e-06
1.30208e-06
1.30476e-06
1.30894e-06
1.3176e-06
1.30486e-06
1.30163e-06
1.29972e-06
1.29866e-06
1.2982e-06
1.29826e-06
1.29886e-06
1.3001e-06
1.30227e-06
1.3059e-06
1.31743e-06
1.30761e-06
1.30314e-06
1.30034e-06
1.29866e-06
1.29771e-06
1.2973e-06
1.29735e-06
1.29789e-06
1.29899e-06
1.3009e-06
1.30409e-06
1.31162e-06
1.30677e-06
1.30244e-06
1.29979e-06
1.2982e-06
1.2973e-06
1.2969e-06
1.29696e-06
1.29747e-06
1.29852e-06
1.30033e-06
1.30335e-06
1.30979e-06
1.30685e-06
1.30253e-06
1.29986e-06
1.29827e-06
1.29735e-06
1.29696e-06
1.29701e-06
1.29753e-06
1.29859e-06
1.30041e-06
1.30346e-06
1.31012e-06
1.30801e-06
1.30345e-06
1.30057e-06
1.29886e-06
1.29789e-06
1.29747e-06
1.29753e-06
1.29808e-06
1.29921e-06
1.30116e-06
1.30445e-06
1.31197e-06
1.31854e-06
1.30544e-06
1.30208e-06
1.3001e-06
1.29899e-06
1.29852e-06
1.29859e-06
1.29921e-06
1.3005e-06
1.30277e-06
1.30654e-06
1.31741e-06
1.30869e-06
1.30476e-06
1.30227e-06
1.3009e-06
1.30033e-06
1.30041e-06
1.30116e-06
1.30277e-06
1.30561e-06
1.31253e-06
1.30894e-06
1.3059e-06
1.30409e-06
1.30335e-06
1.30346e-06
1.30445e-06
1.30654e-06
1.31253e-06
1.31743e-06
1.31162e-06
1.30979e-06
1.31012e-06
1.31197e-06
1.31741e-06
1.28884e-06
1.28779e-06
1.28777e-06
1.2878e-06
1.28876e-06
1.28869e-06
1.28891e-06
1.28808e-06
1.28766e-06
1.28605e-06
1.28602e-06
1.28604e-06
1.2878e-06
1.28808e-06
1.28888e-06
1.28808e-06
1.28767e-06
1.28609e-06
1.28602e-06
1.28607e-06
1.28602e-06
1.28609e-06
1.28777e-06
1.28805e-06
1.28885e-06
1.28884e-06
1.28766e-06
1.28609e-06
1.28602e-06
1.28606e-06
1.28605e-06
1.28606e-06
1.28602e-06
1.28609e-06
1.28776e-06
1.28807e-06
1.28895e-06
1.28779e-06
1.28605e-06
1.28602e-06
1.28606e-06
1.28603e-06
1.28603e-06
1.28603e-06
1.28606e-06
1.28602e-06
1.28605e-06
1.28818e-06
1.28904e-06
1.28777e-06
1.28602e-06
1.28607e-06
1.28605e-06
1.28603e-06
1.28602e-06
1.28603e-06
1.28605e-06
1.28607e-06
1.28602e-06
1.28818e-06
1.28889e-06
1.2878e-06
1.28604e-06
1.28602e-06
1.28606e-06
1.28603e-06
1.28603e-06
1.28603e-06
1.28606e-06
1.28602e-06
1.28604e-06
1.28819e-06
1.28893e-06
1.28876e-06
1.2878e-06
1.28609e-06
1.28602e-06
1.28607e-06
1.28605e-06
1.28606e-06
1.28602e-06
1.28609e-06
1.2879e-06
1.28811e-06
1.28901e-06
1.28869e-06
1.28808e-06
1.28777e-06
1.2861e-06
1.28602e-06
1.28607e-06
1.28602e-06
1.28609e-06
1.28786e-06
1.28807e-06
1.28812e-06
1.28888e-06
1.28805e-06
1.28776e-06
1.28605e-06
1.28602e-06
1.28604e-06
1.2879e-06
1.28807e-06
1.28819e-06
1.28901e-06
1.28885e-06
1.28807e-06
1.28818e-06
1.28818e-06
1.28819e-06
1.28811e-06
1.28812e-06
1.28901e-06
1.28895e-06
1.28904e-06
1.28889e-06
1.28893e-06
1.28901e-06
1.27786e-06
1.27684e-06
1.27677e-06
1.27682e-06
1.27781e-06
1.27788e-06
1.2779e-06
1.277e-06
1.27652e-06
1.27493e-06
1.27493e-06
1.27493e-06
1.27667e-06
1.27701e-06
1.27784e-06
1.277e-06
1.27651e-06
1.27499e-06
1.27498e-06
1.27502e-06
1.27498e-06
1.27499e-06
1.27666e-06
1.277e-06
1.27785e-06
1.27786e-06
1.27652e-06
1.27499e-06
1.275e-06
1.27506e-06
1.27506e-06
1.27506e-06
1.275e-06
1.27499e-06
1.27667e-06
1.27706e-06
1.27791e-06
1.27684e-06
1.27493e-06
1.27498e-06
1.27506e-06
1.27507e-06
1.27509e-06
1.27507e-06
1.27506e-06
1.27498e-06
1.27493e-06
1.27708e-06
1.27802e-06
1.27677e-06
1.27493e-06
1.27502e-06
1.27506e-06
1.27509e-06
1.2751e-06
1.27509e-06
1.27506e-06
1.27502e-06
1.27493e-06
1.27707e-06
1.27801e-06
1.27682e-06
1.27493e-06
1.27498e-06
1.27506e-06
1.27507e-06
1.27509e-06
1.27507e-06
1.27506e-06
1.27498e-06
1.27493e-06
1.27708e-06
1.27801e-06
1.27781e-06
1.27667e-06
1.27499e-06
1.275e-06
1.27506e-06
1.27506e-06
1.27506e-06
1.275e-06
1.27499e-06
1.27684e-06
1.27708e-06
1.27803e-06
1.27788e-06
1.27701e-06
1.27666e-06
1.27499e-06
1.27498e-06
1.27502e-06
1.27498e-06
1.27499e-06
1.27681e-06
1.27701e-06
1.27714e-06
1.27784e-06
1.277e-06
1.27667e-06
1.27493e-06
1.27493e-06
1.27493e-06
1.27684e-06
1.27701e-06
1.27712e-06
1.27801e-06
1.27785e-06
1.27706e-06
1.27708e-06
1.27707e-06
1.27708e-06
1.27708e-06
1.27714e-06
1.27801e-06
1.27791e-06
1.27802e-06
1.27801e-06
1.27801e-06
1.27803e-06
1.26694e-06
1.26591e-06
1.26584e-06
1.26589e-06
1.26689e-06
1.26696e-06
1.26698e-06
1.26606e-06
1.26555e-06
1.26395e-06
1.26395e-06
1.26395e-06
1.26569e-06
1.26606e-06
1.26692e-06
1.26606e-06
1.26553e-06
1.26398e-06
1.26399e-06
1.26401e-06
1.26399e-06
1.26398e-06
1.26568e-06
1.26605e-06
1.26693e-06
1.26694e-06
1.26555e-06
1.26398e-06
1.264e-06
1.26404e-06
1.26405e-06
1.26404e-06
1.264e-06
1.26398e-06
1.2657e-06
1.26613e-06
1.267e-06
1.26591e-06
1.26395e-06
1.26399e-06
1.26404e-06
1.26406e-06
1.26408e-06
1.26406e-06
1.26404e-06
1.26399e-06
1.26395e-06
1.26614e-06
1.2671e-06
1.26584e-06
1.26395e-06
1.26401e-06
1.26405e-06
1.26408e-06
1.26409e-06
1.26408e-06
1.26405e-06
1.26401e-06
1.26395e-06
1.26612e-06
1.26709e-06
1.26589e-06
1.26395e-06
1.26399e-06
1.26404e-06
1.26406e-06
1.26408e-06
1.26406e-06
1.26404e-06
1.26399e-06
1.26395e-06
1.26613e-06
1.26709e-06
1.26689e-06
1.26569e-06
1.26398e-06
1.264e-06
1.26404e-06
1.26405e-06
1.26404e-06
1.264e-06
1.26398e-06
1.26588e-06
1.26615e-06
1.26711e-06
1.26696e-06
1.26606e-06
1.26568e-06
1.26398e-06
1.26399e-06
1.26401e-06
1.26399e-06
1.26398e-06
1.26585e-06
1.26607e-06
1.26622e-06
1.26692e-06
1.26605e-06
1.2657e-06
1.26395e-06
1.26395e-06
1.26395e-06
1.26588e-06
1.26607e-06
1.26619e-06
1.2671e-06
1.26693e-06
1.26613e-06
1.26614e-06
1.26612e-06
1.26613e-06
1.26615e-06
1.26622e-06
1.2671e-06
1.267e-06
1.2671e-06
1.26709e-06
1.26709e-06
1.26711e-06
1.25602e-06
1.25498e-06
1.25491e-06
1.25496e-06
1.25597e-06
1.25604e-06
1.25606e-06
1.25513e-06
1.25461e-06
1.253e-06
1.253e-06
1.253e-06
1.25475e-06
1.25512e-06
1.256e-06
1.25513e-06
1.25459e-06
1.25302e-06
1.25303e-06
1.25304e-06
1.25303e-06
1.25302e-06
1.25473e-06
1.25512e-06
1.25601e-06
1.25602e-06
1.25462e-06
1.25302e-06
1.25303e-06
1.25306e-06
1.25306e-06
1.25306e-06
1.25303e-06
1.25302e-06
1.25475e-06
1.2552e-06
1.25607e-06
1.25498e-06
1.253e-06
1.25303e-06
1.25306e-06
1.25307e-06
1.25308e-06
1.25307e-06
1.25306e-06
1.25303e-06
1.253e-06
1.25521e-06
1.25618e-06
1.25491e-06
1.253e-06
1.25304e-06
1.25306e-06
1.25308e-06
1.25309e-06
1.25308e-06
1.25306e-06
1.25304e-06
1.253e-06
1.25519e-06
1.25617e-06
1.25496e-06
1.253e-06
1.25303e-06
1.25306e-06
1.25307e-06
1.25308e-06
1.25307e-06
1.25306e-06
1.25303e-06
1.253e-06
1.2552e-06
1.25617e-06
1.25597e-06
1.25475e-06
1.25302e-06
1.25303e-06
1.25306e-06
1.25306e-06
1.25306e-06
1.25303e-06
1.25302e-06
1.25494e-06
1.25523e-06
1.25619e-06
1.25604e-06
1.25512e-06
1.25473e-06
1.25302e-06
1.25303e-06
1.25304e-06
1.25303e-06
1.25302e-06
1.25491e-06
1.25513e-06
1.2553e-06
1.256e-06
1.25512e-06
1.25475e-06
1.253e-06
1.253e-06
1.253e-06
1.25494e-06
1.25513e-06
1.25527e-06
1.25618e-06
1.25601e-06
1.2552e-06
1.25521e-06
1.25519e-06
1.2552e-06
1.25523e-06
1.2553e-06
1.25618e-06
1.25607e-06
1.25618e-06
1.25617e-06
1.25617e-06
1.25619e-06
1.24509e-06
1.24406e-06
1.24398e-06
1.24403e-06
1.24504e-06
1.24512e-06
1.24514e-06
1.2442e-06
1.24368e-06
1.24207e-06
1.24207e-06
1.24207e-06
1.24382e-06
1.24419e-06
1.24508e-06
1.2442e-06
1.24365e-06
1.24207e-06
1.24208e-06
1.24208e-06
1.24208e-06
1.24207e-06
1.2438e-06
1.24419e-06
1.24508e-06
1.24509e-06
1.24368e-06
1.24207e-06
1.24208e-06
1.2421e-06
1.2421e-06
1.2421e-06
1.24208e-06
1.24207e-06
1.24382e-06
1.24427e-06
1.24515e-06
1.24406e-06
1.24207e-06
1.24208e-06
1.2421e-06
1.24211e-06
1.24211e-06
1.24211e-06
1.2421e-06
1.24208e-06
1.24207e-06
1.24428e-06
1.24525e-06
1.24398e-06
1.24207e-06
1.24208e-06
1.2421e-06
1.24211e-06
1.24212e-06
1.24211e-06
1.2421e-06
1.24208e-06
1.24207e-06
1.24426e-06
1.24524e-06
1.24403e-06
1.24207e-06
1.24208e-06
1.2421e-06
1.24211e-06
1.24211e-06
1.24211e-06
1.2421e-06
1.24208e-06
1.24207e-06
1.24427e-06
1.24524e-06
1.24504e-06
1.24382e-06
1.24207e-06
1.24208e-06
1.2421e-06
1.2421e-06
1.2421e-06
1.24208e-06
1.24207e-06
1.24401e-06
1.2443e-06
1.24526e-06
1.24512e-06
1.24419e-06
1.2438e-06
1.24207e-06
1.24208e-06
1.24208e-06
1.24208e-06
1.24207e-06
1.24397e-06
1.24421e-06
1.24437e-06
1.24508e-06
1.24419e-06
1.24382e-06
1.24207e-06
1.24207e-06
1.24207e-06
1.24401e-06
1.24421e-06
1.24435e-06
1.24525e-06
1.24508e-06
1.24427e-06
1.24428e-06
1.24426e-06
1.24427e-06
1.2443e-06
1.24437e-06
1.24525e-06
1.24515e-06
1.24525e-06
1.24524e-06
1.24524e-06
1.24526e-06
1.23416e-06
1.23313e-06
1.23305e-06
1.2331e-06
1.23411e-06
1.23419e-06
1.23421e-06
1.23327e-06
1.23275e-06
1.23113e-06
1.23114e-06
1.23113e-06
1.23289e-06
1.23327e-06
1.23415e-06
1.23327e-06
1.23272e-06
1.23114e-06
1.23114e-06
1.23114e-06
1.23114e-06
1.23114e-06
1.23287e-06
1.23326e-06
1.23416e-06
1.23416e-06
1.23275e-06
1.23114e-06
1.23114e-06
1.23115e-06
1.23115e-06
1.23115e-06
1.23114e-06
1.23114e-06
1.23289e-06
1.23335e-06
1.23422e-06
1.23313e-06
1.23113e-06
1.23114e-06
1.23115e-06
1.23116e-06
1.23116e-06
1.23116e-06
1.23115e-06
1.23114e-06
1.23113e-06
1.23335e-06
1.23433e-06
1.23305e-06
1.23113e-06
1.23114e-06
1.23115e-06
1.23116e-06
1.23116e-06
1.23116e-06
1.23115e-06
1.23114e-06
1.23113e-06
1.23333e-06
1.23432e-06
1.2331e-06
1.23113e-06
1.23114e-06
1.23115e-06
1.23116e-06
1.23116e-06
1.23116e-06
1.23115e-06
1.23114e-06
1.23113e-06
1.23334e-06
1.23432e-06
1.23411e-06
1.23289e-06
1.23114e-06
1.23114e-06
1.23115e-06
1.23115e-06
1.23115e-06
1.23114e-06
1.23114e-06
1.23308e-06
1.23337e-06
1.23434e-06
1.23419e-06
1.23327e-06
1.23287e-06
1.23114e-06
1.23114e-06
1.23114e-06
1.23114e-06
1.23114e-06
1.23304e-06
1.23328e-06
1.23345e-06
1.23415e-06
1.23326e-06
1.23289e-06
1.23113e-06
1.23114e-06
1.23113e-06
1.23308e-06
1.23328e-06
1.23342e-06
1.23433e-06
1.23416e-06
1.23335e-06
1.23335e-06
1.23333e-06
1.23334e-06
1.23337e-06
1.23345e-06
1.23433e-06
1.23422e-06
1.23433e-06
1.23432e-06
1.23432e-06
1.23434e-06
1.22324e-06
1.2222e-06
1.22213e-06
1.22218e-06
1.22319e-06
1.22326e-06
1.22328e-06
1.22235e-06
1.22183e-06
1.2202e-06
1.22021e-06
1.2202e-06
1.22197e-06
1.22234e-06
1.22322e-06
1.22235e-06
1.22179e-06
1.22021e-06
1.22021e-06
1.22021e-06
1.22021e-06
1.22021e-06
1.22194e-06
1.22234e-06
1.22323e-06
1.22324e-06
1.22183e-06
1.22021e-06
1.22021e-06
1.22021e-06
1.22021e-06
1.22021e-06
1.22021e-06
1.22021e-06
1.22196e-06
1.22242e-06
1.2233e-06
1.2222e-06
1.2202e-06
1.22021e-06
1.22021e-06
1.22022e-06
1.22022e-06
1.22022e-06
1.22021e-06
1.22021e-06
1.2202e-06
1.22243e-06
1.2234e-06
1.22213e-06
1.22021e-06
1.22021e-06
1.22021e-06
1.22022e-06
1.22022e-06
1.22022e-06
1.22021e-06
1.22021e-06
1.22021e-06
1.2224e-06
1.22339e-06
1.22218e-06
1.2202e-06
1.22021e-06
1.22021e-06
1.22022e-06
1.22022e-06
1.22022e-06
1.22021e-06
1.22021e-06
1.2202e-06
1.22241e-06
1.22339e-06
1.22319e-06
1.22197e-06
1.22021e-06
1.22021e-06
1.22021e-06
1.22021e-06
1.22021e-06
1.22021e-06
1.22021e-06
1.22215e-06
1.22245e-06
1.22341e-06
1.22326e-06
1.22234e-06
1.22194e-06
1.22021e-06
1.22021e-06
1.22021e-06
1.22021e-06
1.22021e-06
1.22211e-06
1.22235e-06
1.22252e-06
1.22322e-06
1.22234e-06
1.22196e-06
1.2202e-06
1.22021e-06
1.2202e-06
1.22215e-06
1.22235e-06
1.22249e-06
1.2234e-06
1.22323e-06
1.22242e-06
1.22243e-06
1.2224e-06
1.22241e-06
1.22245e-06
1.22252e-06
1.2234e-06
1.2233e-06
1.2234e-06
1.22339e-06
1.22339e-06
1.22341e-06
1.21231e-06
1.21127e-06
1.2112e-06
1.21125e-06
1.21226e-06
1.21234e-06
1.21235e-06
1.21142e-06
1.2109e-06
1.20928e-06
1.20928e-06
1.20928e-06
1.21104e-06
1.21141e-06
1.2123e-06
1.21142e-06
1.21087e-06
1.20928e-06
1.20928e-06
1.20928e-06
1.20928e-06
1.20928e-06
1.21101e-06
1.21141e-06
1.2123e-06
1.21231e-06
1.2109e-06
1.20928e-06
1.20928e-06
1.20928e-06
1.20928e-06
1.20928e-06
1.20928e-06
1.20928e-06
1.21104e-06
1.21149e-06
1.21237e-06
1.21127e-06
1.20928e-06
1.20928e-06
1.20928e-06
1.20928e-06
1.20928e-06
1.20928e-06
1.20928e-06
1.20928e-06
1.20928e-06
1.2115e-06
1.21247e-06
1.2112e-06
1.20928e-06
1.20928e-06
1.20928e-06
1.20928e-06
1.20928e-06
1.20928e-06
1.20928e-06
1.20928e-06
1.20928e-06
1.21147e-06
1.21246e-06
1.21125e-06
1.20928e-06
1.20928e-06
1.20928e-06
1.20928e-06
1.20928e-06
1.20928e-06
1.20928e-06
1.20928e-06
1.20928e-06
1.21148e-06
1.21246e-06
1.21226e-06
1.21104e-06
1.20928e-06
1.20928e-06
1.20928e-06
1.20928e-06
1.20928e-06
1.20928e-06
1.20928e-06
1.21122e-06
1.21152e-06
1.21248e-06
1.21234e-06
1.21141e-06
1.21101e-06
1.20928e-06
1.20928e-06
1.20928e-06
1.20928e-06
1.20928e-06
1.21119e-06
1.21142e-06
1.21159e-06
1.2123e-06
1.21141e-06
1.21104e-06
1.20928e-06
1.20928e-06
1.20928e-06
1.21122e-06
1.21142e-06
1.21157e-06
1.21247e-06
1.2123e-06
1.21149e-06
1.2115e-06
1.21147e-06
1.21148e-06
1.21152e-06
1.21159e-06
1.21247e-06
1.21237e-06
1.21247e-06
1.21246e-06
1.21246e-06
1.21248e-06
1.20138e-06
1.20035e-06
1.20027e-06
1.20032e-06
1.20133e-06
1.20141e-06
1.20143e-06
1.20049e-06
1.19997e-06
1.19835e-06
1.19835e-06
1.19835e-06
1.20011e-06
1.20048e-06
1.20137e-06
1.20049e-06
1.19994e-06
1.19835e-06
1.19835e-06
1.19835e-06
1.19835e-06
1.19835e-06
1.20008e-06
1.20048e-06
1.20137e-06
1.20138e-06
1.19997e-06
1.19835e-06
1.19835e-06
1.19835e-06
1.19835e-06
1.19835e-06
1.19835e-06
1.19835e-06
1.20011e-06
1.20056e-06
1.20144e-06
1.20035e-06
1.19835e-06
1.19835e-06
1.19835e-06
1.19835e-06
1.19835e-06
1.19835e-06
1.19835e-06
1.19835e-06
1.19835e-06
1.20057e-06
1.20154e-06
1.20027e-06
1.19835e-06
1.19835e-06
1.19835e-06
1.19835e-06
1.19835e-06
1.19835e-06
1.19835e-06
1.19835e-06
1.19835e-06
1.20055e-06
1.20153e-06
1.20032e-06
1.19835e-06
1.19835e-06
1.19835e-06
1.19835e-06
1.19835e-06
1.19835e-06
1.19835e-06
1.19835e-06
1.19835e-06
1.20056e-06
1.20153e-06
1.20133e-06
1.20011e-06
1.19835e-06
1.19835e-06
1.19835e-06
1.19835e-06
1.19835e-06
1.19835e-06
1.19835e-06
1.2003e-06
1.20059e-06
1.20155e-06
1.20141e-06
1.20048e-06
1.20008e-06
1.19835e-06
1.19835e-06
1.19835e-06
1.19835e-06
1.19835e-06
1.20026e-06
1.2005e-06
1.20066e-06
1.20137e-06
1.20048e-06
1.20011e-06
1.19835e-06
1.19835e-06
1.19835e-06
1.2003e-06
1.2005e-06
1.20064e-06
1.20154e-06
1.20137e-06
1.20056e-06
1.20057e-06
1.20055e-06
1.20056e-06
1.20059e-06
1.20066e-06
1.20154e-06
1.20144e-06
1.20154e-06
1.20153e-06
1.20153e-06
1.20155e-06
1.19045e-06
1.18942e-06
1.18934e-06
1.18939e-06
1.1904e-06
1.19048e-06
1.1905e-06
1.18956e-06
1.18904e-06
1.18742e-06
1.18742e-06
1.18742e-06
1.18918e-06
1.18956e-06
1.19044e-06
1.18956e-06
1.18901e-06
1.18742e-06
1.18742e-06
1.18742e-06
1.18742e-06
1.18742e-06
1.18916e-06
1.18955e-06
1.19045e-06
1.19045e-06
1.18904e-06
1.18742e-06
1.18742e-06
1.18742e-06
1.18742e-06
1.18742e-06
1.18742e-06
1.18742e-06
1.18918e-06
1.18964e-06
1.19051e-06
1.18942e-06
1.18742e-06
1.18742e-06
1.18742e-06
1.18742e-06
1.18742e-06
1.18742e-06
1.18742e-06
1.18742e-06
1.18742e-06
1.18964e-06
1.19061e-06
1.18934e-06
1.18742e-06
1.18742e-06
1.18742e-06
1.18742e-06
1.18742e-06
1.18742e-06
1.18742e-06
1.18742e-06
1.18742e-06
1.18962e-06
1.1906e-06
1.18939e-06
1.18742e-06
1.18742e-06
1.18742e-06
1.18742e-06
1.18742e-06
1.18742e-06
1.18742e-06
1.18742e-06
1.18742e-06
1.18963e-06
1.19061e-06
1.1904e-06
1.18918e-06
1.18742e-06
1.18742e-06
1.18742e-06
1.18742e-06
1.18742e-06
1.18742e-06
1.18742e-06
1.18937e-06
1.18966e-06
1.19063e-06
1.19048e-06
1.18956e-06
1.18916e-06
1.18742e-06
1.18742e-06
1.18742e-06
1.18742e-06
1.18742e-06
1.18933e-06
1.18957e-06
1.18974e-06
1.19044e-06
1.18955e-06
1.18918e-06
1.18742e-06
1.18742e-06
1.18742e-06
1.18937e-06
1.18957e-06
1.18971e-06
1.19062e-06
1.19045e-06
1.18964e-06
1.18964e-06
1.18962e-06
1.18963e-06
1.18966e-06
1.18974e-06
1.19062e-06
1.19051e-06
1.19061e-06
1.1906e-06
1.19061e-06
1.19063e-06
1.17953e-06
1.17849e-06
1.17841e-06
1.17846e-06
1.17947e-06
1.17955e-06
1.17957e-06
1.17864e-06
1.17811e-06
1.17649e-06
1.17649e-06
1.17649e-06
1.17825e-06
1.17863e-06
1.17951e-06
1.17864e-06
1.17808e-06
1.17649e-06
1.17649e-06
1.17649e-06
1.17649e-06
1.17649e-06
1.17823e-06
1.17862e-06
1.17952e-06
1.17953e-06
1.17811e-06
1.17649e-06
1.17649e-06
1.17649e-06
1.17649e-06
1.17649e-06
1.17649e-06
1.17649e-06
1.17825e-06
1.17871e-06
1.17958e-06
1.17849e-06
1.17649e-06
1.17649e-06
1.17649e-06
1.17649e-06
1.17649e-06
1.17649e-06
1.17649e-06
1.17649e-06
1.17649e-06
1.17871e-06
1.17969e-06
1.17841e-06
1.17649e-06
1.17649e-06
1.17649e-06
1.17649e-06
1.17649e-06
1.17649e-06
1.17649e-06
1.17649e-06
1.17649e-06
1.17869e-06
1.17968e-06
1.17846e-06
1.17649e-06
1.17649e-06
1.17649e-06
1.17649e-06
1.17649e-06
1.17649e-06
1.17649e-06
1.17649e-06
1.17649e-06
1.1787e-06
1.17968e-06
1.17947e-06
1.17825e-06
1.17649e-06
1.17649e-06
1.17649e-06
1.17649e-06
1.17649e-06
1.17649e-06
1.17649e-06
1.17844e-06
1.17873e-06
1.1797e-06
1.17955e-06
1.17863e-06
1.17823e-06
1.17649e-06
1.17649e-06
1.17649e-06
1.17649e-06
1.17649e-06
1.1784e-06
1.17864e-06
1.17881e-06
1.17951e-06
1.17862e-06
1.17825e-06
1.17649e-06
1.17649e-06
1.17649e-06
1.17844e-06
1.17864e-06
1.17878e-06
1.17969e-06
1.17952e-06
1.17871e-06
1.17871e-06
1.17869e-06
1.1787e-06
1.17873e-06
1.17881e-06
1.17969e-06
1.17958e-06
1.17969e-06
1.17968e-06
1.17968e-06
1.1797e-06
1.1686e-06
1.16756e-06
1.16749e-06
1.16754e-06
1.16855e-06
1.16863e-06
1.16864e-06
1.16771e-06
1.16719e-06
1.16556e-06
1.16556e-06
1.16556e-06
1.16733e-06
1.1677e-06
1.16858e-06
1.16771e-06
1.16715e-06
1.16556e-06
1.16556e-06
1.16556e-06
1.16556e-06
1.16556e-06
1.1673e-06
1.1677e-06
1.16859e-06
1.1686e-06
1.16719e-06
1.16556e-06
1.16556e-06
1.16556e-06
1.16556e-06
1.16556e-06
1.16556e-06
1.16556e-06
1.16732e-06
1.16778e-06
1.16866e-06
1.16756e-06
1.16556e-06
1.16556e-06
1.16556e-06
1.16556e-06
1.16556e-06
1.16556e-06
1.16556e-06
1.16556e-06
1.16556e-06
1.16779e-06
1.16876e-06
1.16749e-06
1.16556e-06
1.16556e-06
1.16556e-06
1.16556e-06
1.16556e-06
1.16556e-06
1.16556e-06
1.16556e-06
1.16556e-06
1.16776e-06
1.16875e-06
1.16754e-06
1.16556e-06
1.16556e-06
1.16556e-06
1.16556e-06
1.16556e-06
1.16556e-06
1.16556e-06
1.16556e-06
1.16556e-06
1.16777e-06
1.16875e-06
1.16855e-06
1.16733e-06
1.16556e-06
1.16556e-06
1.16556e-06
1.16556e-06
1.16556e-06
1.16556e-06
1.16556e-06
1.16751e-06
1.16781e-06
1.16877e-06
1.16863e-06
1.1677e-06
1.1673e-06
1.16556e-06
1.16556e-06
1.16556e-06
1.16556e-06
1.16556e-06
1.16747e-06
1.16771e-06
1.16788e-06
1.16858e-06
1.1677e-06
1.16732e-06
1.16556e-06
1.16556e-06
1.16556e-06
1.16751e-06
1.16771e-06
1.16785e-06
1.16876e-06
1.16859e-06
1.16778e-06
1.16779e-06
1.16776e-06
1.16777e-06
1.16781e-06
1.16788e-06
1.16876e-06
1.16866e-06
1.16876e-06
1.16875e-06
1.16875e-06
1.16877e-06
1.15767e-06
1.15663e-06
1.15656e-06
1.15661e-06
1.15762e-06
1.1577e-06
1.15772e-06
1.15678e-06
1.15626e-06
1.15464e-06
1.15464e-06
1.15464e-06
1.1564e-06
1.15677e-06
1.15766e-06
1.15678e-06
1.15623e-06
1.15464e-06
1.15464e-06
1.15464e-06
1.15464e-06
1.15464e-06
1.15637e-06
1.15677e-06
1.15766e-06
1.15767e-06
1.15626e-06
1.15464e-06
1.15464e-06
1.15464e-06
1.15464e-06
1.15464e-06
1.15464e-06
1.15464e-06
1.1564e-06
1.15685e-06
1.15773e-06
1.15663e-06
1.15464e-06
1.15464e-06
1.15464e-06
1.15464e-06
1.15464e-06
1.15464e-06
1.15464e-06
1.15464e-06
1.15464e-06
1.15686e-06
1.15783e-06
1.15656e-06
1.15464e-06
1.15464e-06
1.15464e-06
1.15464e-06
1.15464e-06
1.15464e-06
1.15464e-06
1.15464e-06
1.15464e-06
1.15683e-06
1.15782e-06
1.15661e-06
1.15464e-06
1.15464e-06
1.15464e-06
1.15464e-06
1.15464e-06
1.15464e-06
1.15464e-06
1.15464e-06
1.15464e-06
1.15684e-06
1.15782e-06
1.15762e-06
1.1564e-06
1.15464e-06
1.15464e-06
1.15464e-06
1.15464e-06
1.15464e-06
1.15464e-06
1.15464e-06
1.15658e-06
1.15688e-06
1.15784e-06
1.1577e-06
1.15677e-06
1.15637e-06
1.15464e-06
1.15464e-06
1.15464e-06
1.15464e-06
1.15464e-06
1.15655e-06
1.15678e-06
1.15695e-06
1.15766e-06
1.15677e-06
1.1564e-06
1.15464e-06
1.15464e-06
1.15464e-06
1.15658e-06
1.15678e-06
1.15693e-06
1.15783e-06
1.15766e-06
1.15685e-06
1.15686e-06
1.15683e-06
1.15684e-06
1.15688e-06
1.15695e-06
1.15783e-06
1.15773e-06
1.15783e-06
1.15782e-06
1.15782e-06
1.15784e-06
1.14674e-06
1.14571e-06
1.14563e-06
1.14568e-06
1.14669e-06
1.14677e-06
1.14679e-06
1.14585e-06
1.14533e-06
1.14371e-06
1.14371e-06
1.14371e-06
1.14547e-06
1.14584e-06
1.14673e-06
1.14585e-06
1.1453e-06
1.14371e-06
1.14371e-06
1.14371e-06
1.14371e-06
1.14371e-06
1.14544e-06
1.14584e-06
1.14673e-06
1.14674e-06
1.14533e-06
1.14371e-06
1.14371e-06
1.14371e-06
1.14371e-06
1.14371e-06
1.14371e-06
1.14371e-06
1.14547e-06
1.14593e-06
1.1468e-06
1.14571e-06
1.14371e-06
1.14371e-06
1.14371e-06
1.14371e-06
1.14371e-06
1.14371e-06
1.14371e-06
1.14371e-06
1.14371e-06
1.14593e-06
1.1469e-06
1.14563e-06
1.14371e-06
1.14371e-06
1.14371e-06
1.14371e-06
1.14371e-06
1.14371e-06
1.14371e-06
1.14371e-06
1.14371e-06
1.14591e-06
1.14689e-06
1.14568e-06
1.14371e-06
1.14371e-06
1.14371e-06
1.14371e-06
1.14371e-06
1.14371e-06
1.14371e-06
1.14371e-06
1.14371e-06
1.14592e-06
1.1469e-06
1.14669e-06
1.14547e-06
1.14371e-06
1.14371e-06
1.14371e-06
1.14371e-06
1.14371e-06
1.14371e-06
1.14371e-06
1.14566e-06
1.14595e-06
1.14691e-06
1.14677e-06
1.14584e-06
1.14544e-06
1.14371e-06
1.14371e-06
1.14371e-06
1.14371e-06
1.14371e-06
1.14562e-06
1.14586e-06
1.14603e-06
1.14673e-06
1.14584e-06
1.14547e-06
1.14371e-06
1.14371e-06
1.14371e-06
1.14566e-06
1.14586e-06
1.146e-06
1.1469e-06
1.14673e-06
1.14593e-06
1.14593e-06
1.14591e-06
1.14592e-06
1.14595e-06
1.14603e-06
1.1469e-06
1.1468e-06
1.1469e-06
1.14689e-06
1.1469e-06
1.14691e-06
1.13581e-06
1.13478e-06
1.1347e-06
1.13475e-06
1.13576e-06
1.13584e-06
1.13586e-06
1.13492e-06
1.1344e-06
1.13278e-06
1.13278e-06
1.13278e-06
1.13454e-06
1.13492e-06
1.1358e-06
1.13492e-06
1.13437e-06
1.13278e-06
1.13278e-06
1.13278e-06
1.13278e-06
1.13278e-06
1.13452e-06
1.13491e-06
1.13581e-06
1.13581e-06
1.1344e-06
1.13278e-06
1.13278e-06
1.13278e-06
1.13278e-06
1.13278e-06
1.13278e-06
1.13278e-06
1.13454e-06
1.135e-06
1.13587e-06
1.13478e-06
1.13278e-06
1.13278e-06
1.13278e-06
1.13278e-06
1.13278e-06
1.13278e-06
1.13278e-06
1.13278e-06
1.13278e-06
1.135e-06
1.13598e-06
1.1347e-06
1.13278e-06
1.13278e-06
1.13278e-06
1.13278e-06
1.13278e-06
1.13278e-06
1.13278e-06
1.13278e-06
1.13278e-06
1.13498e-06
1.13597e-06
1.13475e-06
1.13278e-06
1.13278e-06
1.13278e-06
1.13278e-06
1.13278e-06
1.13278e-06
1.13278e-06
1.13278e-06
1.13278e-06
1.13499e-06
1.13597e-06
1.13576e-06
1.13454e-06
1.13278e-06
1.13278e-06
1.13278e-06
1.13278e-06
1.13278e-06
1.13278e-06
1.13278e-06
1.13473e-06
1.13502e-06
1.13599e-06
1.13584e-06
1.13492e-06
1.13452e-06
1.13278e-06
1.13278e-06
1.13278e-06
1.13278e-06
1.13278e-06
1.13469e-06
1.13493e-06
1.1351e-06
1.1358e-06
1.13491e-06
1.13454e-06
1.13278e-06
1.13278e-06
1.13278e-06
1.13473e-06
1.13493e-06
1.13507e-06
1.13598e-06
1.13581e-06
1.135e-06
1.135e-06
1.13498e-06
1.13499e-06
1.13502e-06
1.1351e-06
1.13598e-06
1.13587e-06
1.13598e-06
1.13597e-06
1.13597e-06
1.13599e-06
1.12489e-06
1.12385e-06
1.12378e-06
1.12382e-06
1.12484e-06
1.12491e-06
1.12493e-06
1.124e-06
1.12347e-06
1.12185e-06
1.12185e-06
1.12185e-06
1.12361e-06
1.12399e-06
1.12487e-06
1.124e-06
1.12344e-06
1.12185e-06
1.12185e-06
1.12185e-06
1.12185e-06
1.12185e-06
1.12359e-06
1.12398e-06
1.12488e-06
1.12489e-06
1.12347e-06
1.12185e-06
1.12185e-06
1.12185e-06
1.12185e-06
1.12185e-06
1.12185e-06
1.12185e-06
1.12361e-06
1.12407e-06
1.12495e-06
1.12385e-06
1.12185e-06
1.12185e-06
1.12185e-06
1.12185e-06
1.12185e-06
1.12185e-06
1.12185e-06
1.12185e-06
1.12185e-06
1.12407e-06
1.12505e-06
1.12378e-06
1.12185e-06
1.12185e-06
1.12185e-06
1.12185e-06
1.12185e-06
1.12185e-06
1.12185e-06
1.12185e-06
1.12185e-06
1.12405e-06
1.12504e-06
1.12382e-06
1.12185e-06
1.12185e-06
1.12185e-06
1.12185e-06
1.12185e-06
1.12185e-06
1.12185e-06
1.12185e-06
1.12185e-06
1.12406e-06
1.12504e-06
1.12484e-06
1.12361e-06
1.12185e-06
1.12185e-06
1.12185e-06
1.12185e-06
1.12185e-06
1.12185e-06
1.12185e-06
1.1238e-06
1.1241e-06
1.12506e-06
1.12491e-06
1.12399e-06
1.12359e-06
1.12185e-06
1.12185e-06
1.12185e-06
1.12185e-06
1.12185e-06
1.12376e-06
1.124e-06
1.12417e-06
1.12487e-06
1.12398e-06
1.12361e-06
1.12185e-06
1.12185e-06
1.12185e-06
1.1238e-06
1.124e-06
1.12414e-06
1.12505e-06
1.12488e-06
1.12407e-06
1.12407e-06
1.12405e-06
1.12406e-06
1.1241e-06
1.12417e-06
1.12505e-06
1.12495e-06
1.12505e-06
1.12504e-06
1.12504e-06
1.12506e-06
1.11396e-06
1.11292e-06
1.11285e-06
1.1129e-06
1.11391e-06
1.11399e-06
1.114e-06
1.11307e-06
1.11255e-06
1.11092e-06
1.11092e-06
1.11092e-06
1.11269e-06
1.11306e-06
1.11395e-06
1.11307e-06
1.11251e-06
1.11092e-06
1.11092e-06
1.11092e-06
1.11092e-06
1.11092e-06
1.11266e-06
1.11306e-06
1.11395e-06
1.11396e-06
1.11255e-06
1.11092e-06
1.11092e-06
1.11092e-06
1.11092e-06
1.11092e-06
1.11092e-06
1.11092e-06
1.11268e-06
1.11314e-06
1.11402e-06
1.11292e-06
1.11092e-06
1.11092e-06
1.11092e-06
1.11092e-06
1.11092e-06
1.11092e-06
1.11092e-06
1.11092e-06
1.11092e-06
1.11315e-06
1.11412e-06
1.11285e-06
1.11092e-06
1.11092e-06
1.11092e-06
1.11092e-06
1.11092e-06
1.11092e-06
1.11092e-06
1.11092e-06
1.11092e-06
1.11312e-06
1.11411e-06
1.1129e-06
1.11092e-06
1.11092e-06
1.11092e-06
1.11092e-06
1.11092e-06
1.11092e-06
1.11092e-06
1.11092e-06
1.11092e-06
1.11313e-06
1.11411e-06
1.11391e-06
1.11269e-06
1.11092e-06
1.11092e-06
1.11092e-06
1.11092e-06
1.11092e-06
1.11092e-06
1.11092e-06
1.11287e-06
1.11317e-06
1.11413e-06
1.11399e-06
1.11306e-06
1.11266e-06
1.11092e-06
1.11092e-06
1.11092e-06
1.11092e-06
1.11092e-06
1.11284e-06
1.11307e-06
1.11324e-06
1.11395e-06
1.11306e-06
1.11268e-06
1.11092e-06
1.11092e-06
1.11092e-06
1.11287e-06
1.11307e-06
1.11322e-06
1.11412e-06
1.11395e-06
1.11314e-06
1.11315e-06
1.11312e-06
1.11313e-06
1.11317e-06
1.11324e-06
1.11412e-06
1.11402e-06
1.11412e-06
1.11411e-06
1.11411e-06
1.11413e-06
1.10303e-06
1.10199e-06
1.10192e-06
1.10197e-06
1.10298e-06
1.10306e-06
1.10308e-06
1.10214e-06
1.10162e-06
1.1e-06
1.1e-06
1.1e-06
1.10176e-06
1.10213e-06
1.10302e-06
1.10214e-06
1.10159e-06
1.1e-06
1.1e-06
1.1e-06
1.1e-06
1.1e-06
1.10173e-06
1.10213e-06
1.10302e-06
1.10303e-06
1.10162e-06
1.1e-06
1.1e-06
1.1e-06
1.1e-06
1.1e-06
1.1e-06
1.1e-06
1.10176e-06
1.10221e-06
1.10309e-06
1.10199e-06
1.1e-06
1.1e-06
1.1e-06
1.1e-06
1.1e-06
1.1e-06
1.1e-06
1.1e-06
1.1e-06
1.10222e-06
1.10319e-06
1.10192e-06
1.1e-06
1.1e-06
1.1e-06
1.1e-06
1.1e-06
1.1e-06
1.1e-06
1.1e-06
1.1e-06
1.10219e-06
1.10318e-06
1.10197e-06
1.1e-06
1.1e-06
1.1e-06
1.1e-06
1.1e-06
1.1e-06
1.1e-06
1.1e-06
1.1e-06
1.10221e-06
1.10318e-06
1.10298e-06
1.10176e-06
1.1e-06
1.1e-06
1.1e-06
1.1e-06
1.1e-06
1.1e-06
1.1e-06
1.10194e-06
1.10224e-06
1.1032e-06
1.10306e-06
1.10213e-06
1.10173e-06
1.1e-06
1.1e-06
1.1e-06
1.1e-06
1.1e-06
1.10191e-06
1.10215e-06
1.10231e-06
1.10302e-06
1.10213e-06
1.10176e-06
1.1e-06
1.1e-06
1.1e-06
1.10194e-06
1.10215e-06
1.10229e-06
1.10319e-06
1.10302e-06
1.10221e-06
1.10222e-06
1.10219e-06
1.10221e-06
1.10224e-06
1.10231e-06
1.10319e-06
1.10309e-06
1.10319e-06
1.10318e-06
1.10318e-06
1.1032e-06
1.0921e-06
1.09107e-06
1.09099e-06
1.09104e-06
1.09205e-06
1.09213e-06
1.09215e-06
1.09121e-06
1.09069e-06
1.08907e-06
1.08907e-06
1.08907e-06
1.09083e-06
1.0912e-06
1.09209e-06
1.09121e-06
1.09066e-06
1.08907e-06
1.08907e-06
1.08907e-06
1.08907e-06
1.08907e-06
1.09081e-06
1.0912e-06
1.09209e-06
1.0921e-06
1.09069e-06
1.08907e-06
1.08907e-06
1.08907e-06
1.08907e-06
1.08907e-06
1.08907e-06
1.08907e-06
1.09083e-06
1.09129e-06
1.09216e-06
1.09107e-06
1.08907e-06
1.08907e-06
1.08907e-06
1.08907e-06
1.08907e-06
1.08907e-06
1.08907e-06
1.08907e-06
1.08907e-06
1.09129e-06
1.09226e-06
1.09099e-06
1.08907e-06
1.08907e-06
1.08907e-06
1.08907e-06
1.08907e-06
1.08907e-06
1.08907e-06
1.08907e-06
1.08907e-06
1.09127e-06
1.09225e-06
1.09104e-06
1.08907e-06
1.08907e-06
1.08907e-06
1.08907e-06
1.08907e-06
1.08907e-06
1.08907e-06
1.08907e-06
1.08907e-06
1.09128e-06
1.09226e-06
1.09205e-06
1.09083e-06
1.08907e-06
1.08907e-06
1.08907e-06
1.08907e-06
1.08907e-06
1.08907e-06
1.08907e-06
1.09102e-06
1.09131e-06
1.09227e-06
1.09213e-06
1.0912e-06
1.09081e-06
1.08907e-06
1.08907e-06
1.08907e-06
1.08907e-06
1.08907e-06
1.09098e-06
1.09122e-06
1.09139e-06
1.09209e-06
1.0912e-06
1.09083e-06
1.08907e-06
1.08907e-06
1.08907e-06
1.09102e-06
1.09122e-06
1.09136e-06
1.09227e-06
1.09209e-06
1.09129e-06
1.09129e-06
1.09127e-06
1.09128e-06
1.09131e-06
1.09139e-06
1.09227e-06
1.09216e-06
1.09226e-06
1.09225e-06
1.09226e-06
1.09227e-06
1.08117e-06
1.08014e-06
1.08006e-06
1.08011e-06
1.08112e-06
1.0812e-06
1.08122e-06
1.08028e-06
1.07976e-06
1.07814e-06
1.07814e-06
1.07814e-06
1.0799e-06
1.08028e-06
1.08116e-06
1.08028e-06
1.07973e-06
1.07814e-06
1.07814e-06
1.07814e-06
1.07814e-06
1.07814e-06
1.07988e-06
1.08027e-06
1.08117e-06
1.08117e-06
1.07976e-06
1.07814e-06
1.07814e-06
1.07814e-06
1.07814e-06
1.07814e-06
1.07814e-06
1.07814e-06
1.0799e-06
1.08036e-06
1.08123e-06
1.08014e-06
1.07814e-06
1.07814e-06
1.07814e-06
1.07814e-06
1.07814e-06
1.07814e-06
1.07814e-06
1.07814e-06
1.07814e-06
1.08036e-06
1.08134e-06
1.08006e-06
1.07814e-06
1.07814e-06
1.07814e-06
1.07814e-06
1.07814e-06
1.07814e-06
1.07814e-06
1.07814e-06
1.07814e-06
1.08034e-06
1.08133e-06
1.08011e-06
1.07814e-06
1.07814e-06
1.07814e-06
1.07814e-06
1.07814e-06
1.07814e-06
1.07814e-06
1.07814e-06
1.07814e-06
1.08035e-06
1.08133e-06
1.08112e-06
1.0799e-06
1.07814e-06
1.07814e-06
1.07814e-06
1.07814e-06
1.07814e-06
1.07814e-06
1.07814e-06
1.08009e-06
1.08038e-06
1.08135e-06