/*--------------------------------*- C++ -*----------------------------------*\
| =========                 |                                                 |
| \\      /  F ield         | OpenFOAM: The Open Source CFD Toolbox           |
|  \\    /   O peration     | Version:  v2012                                 |
|   \\  /    A nd           | Website:  www.openfoam.com                      |
|    \\/     M anipulation  |                                                 |
\*---------------------------------------------------------------------------*/
FoamFile
{
    version     2.0;
    format      ascii;
    class       volScalarField;
    location    "24";
    object      p;
}
// * * * * * * * * * * * * * * * * * * * * * * * * * * * * * * * * * * * * * //

dimensions      [0 2 -2 0 0 0 0];


internalField   nonuniform List<scalar> 
292667
(
1.52797e-06
1.51659e-06
1.5156e-06
1.5157e-06
1.51711e-06
1.52897e-06
1.51681e-06
1.51327e-06
1.51123e-06
1.51041e-06
1.51052e-06
1.51161e-06
1.51398e-06
1.51789e-06
1.51681e-06
1.51223e-06
1.50945e-06
1.50794e-06
1.5073e-06
1.50739e-06
1.50822e-06
1.50999e-06
1.51316e-06
1.51821e-06
1.52797e-06
1.51326e-06
1.50945e-06
1.50723e-06
1.50599e-06
1.50545e-06
1.50553e-06
1.50622e-06
1.50767e-06
1.51021e-06
1.51454e-06
1.52822e-06
1.51659e-06
1.51123e-06
1.50794e-06
1.50599e-06
1.50488e-06
1.5044e-06
1.50446e-06
1.50509e-06
1.50638e-06
1.5086e-06
1.51237e-06
1.52136e-06
1.5156e-06
1.51041e-06
1.5073e-06
1.50545e-06
1.5044e-06
1.50394e-06
1.504e-06
1.5046e-06
1.50583e-06
1.50793e-06
1.51149e-06
1.51916e-06
1.5157e-06
1.51052e-06
1.50739e-06
1.50552e-06
1.50446e-06
1.504e-06
1.50407e-06
1.50467e-06
1.5059e-06
1.50802e-06
1.51161e-06
1.51951e-06
1.51711e-06
1.51161e-06
1.50822e-06
1.50622e-06
1.50509e-06
1.5046e-06
1.50467e-06
1.50531e-06
1.50663e-06
1.50891e-06
1.51278e-06
1.52176e-06
1.52897e-06
1.51398e-06
1.50999e-06
1.50767e-06
1.50638e-06
1.50583e-06
1.5059e-06
1.50663e-06
1.50814e-06
1.5108e-06
1.5153e-06
1.52837e-06
1.51789e-06
1.51316e-06
1.51021e-06
1.5086e-06
1.50793e-06
1.50802e-06
1.50891e-06
1.5108e-06
1.51417e-06
1.52222e-06
1.51821e-06
1.51454e-06
1.51237e-06
1.51149e-06
1.51161e-06
1.51278e-06
1.51529e-06
1.52222e-06
1.52822e-06
1.52136e-06
1.51916e-06
1.51951e-06
1.52176e-06
1.52837e-06
1.49479e-06
1.49343e-06
1.49341e-06
1.49344e-06
1.49455e-06
1.4946e-06
1.49487e-06
1.49378e-06
1.49331e-06
1.49132e-06
1.4913e-06
1.49132e-06
1.4934e-06
1.4937e-06
1.49477e-06
1.49378e-06
1.49333e-06
1.49138e-06
1.49127e-06
1.49132e-06
1.49127e-06
1.49138e-06
1.49336e-06
1.49368e-06
1.49474e-06
1.49479e-06
1.49331e-06
1.49138e-06
1.49129e-06
1.49133e-06
1.49132e-06
1.49133e-06
1.49129e-06
1.49138e-06
1.49335e-06
1.49371e-06
1.49489e-06
1.49343e-06
1.49132e-06
1.49127e-06
1.49133e-06
1.4913e-06
1.49129e-06
1.4913e-06
1.49133e-06
1.49127e-06
1.49132e-06
1.49374e-06
1.49487e-06
1.49341e-06
1.4913e-06
1.49132e-06
1.49132e-06
1.49129e-06
1.49128e-06
1.49129e-06
1.49132e-06
1.49132e-06
1.4913e-06
1.4937e-06
1.49464e-06
1.49344e-06
1.49132e-06
1.49127e-06
1.49133e-06
1.4913e-06
1.49129e-06
1.4913e-06
1.49133e-06
1.49127e-06
1.49132e-06
1.49373e-06
1.4947e-06
1.49455e-06
1.4934e-06
1.49138e-06
1.49129e-06
1.49133e-06
1.49132e-06
1.49133e-06
1.49129e-06
1.49138e-06
1.4934e-06
1.49372e-06
1.49489e-06
1.4946e-06
1.4937e-06
1.49336e-06
1.49138e-06
1.49127e-06
1.49132e-06
1.49127e-06
1.49138e-06
1.49337e-06
1.49365e-06
1.49378e-06
1.49477e-06
1.49368e-06
1.49335e-06
1.49132e-06
1.4913e-06
1.49132e-06
1.4934e-06
1.49365e-06
1.49386e-06
1.49492e-06
1.49474e-06
1.49371e-06
1.49374e-06
1.4937e-06
1.49373e-06
1.49372e-06
1.49378e-06
1.49492e-06
1.49489e-06
1.49487e-06
1.49464e-06
1.4947e-06
1.49489e-06
1.48201e-06
1.48075e-06
1.48067e-06
1.48072e-06
1.48191e-06
1.48203e-06
1.48209e-06
1.48096e-06
1.48042e-06
1.47845e-06
1.47844e-06
1.47845e-06
1.48054e-06
1.48091e-06
1.48197e-06
1.48096e-06
1.48043e-06
1.47851e-06
1.47849e-06
1.47853e-06
1.47849e-06
1.47851e-06
1.48052e-06
1.48089e-06
1.48197e-06
1.48201e-06
1.48042e-06
1.47851e-06
1.47851e-06
1.47858e-06
1.47859e-06
1.47858e-06
1.47851e-06
1.47851e-06
1.48051e-06
1.48096e-06
1.48208e-06
1.48075e-06
1.47845e-06
1.47849e-06
1.47858e-06
1.4786e-06
1.47862e-06
1.4786e-06
1.47858e-06
1.47849e-06
1.47845e-06
1.48094e-06
1.48213e-06
1.48067e-06
1.47844e-06
1.47853e-06
1.47859e-06
1.47862e-06
1.47863e-06
1.47862e-06
1.47859e-06
1.47853e-06
1.47844e-06
1.48091e-06
1.4821e-06
1.48072e-06
1.47845e-06
1.47849e-06
1.47858e-06
1.4786e-06
1.47862e-06
1.4786e-06
1.47858e-06
1.47849e-06
1.47845e-06
1.48092e-06
1.4821e-06
1.48191e-06
1.48054e-06
1.47851e-06
1.47851e-06
1.47858e-06
1.47859e-06
1.47858e-06
1.47851e-06
1.47851e-06
1.48062e-06
1.48096e-06
1.48216e-06
1.48203e-06
1.48091e-06
1.48052e-06
1.47851e-06
1.47849e-06
1.47853e-06
1.47849e-06
1.47851e-06
1.48059e-06
1.48085e-06
1.48105e-06
1.48197e-06
1.48089e-06
1.48051e-06
1.47845e-06
1.47844e-06
1.47845e-06
1.48062e-06
1.48085e-06
1.48104e-06
1.48216e-06
1.48197e-06
1.48096e-06
1.48094e-06
1.48091e-06
1.48092e-06
1.48096e-06
1.48105e-06
1.48216e-06
1.48208e-06
1.48213e-06
1.4821e-06
1.4821e-06
1.48216e-06
1.46936e-06
1.46808e-06
1.468e-06
1.46805e-06
1.46926e-06
1.46938e-06
1.46943e-06
1.46827e-06
1.4677e-06
1.46571e-06
1.46571e-06
1.46571e-06
1.46781e-06
1.46823e-06
1.46931e-06
1.46827e-06
1.46768e-06
1.46575e-06
1.46575e-06
1.46578e-06
1.46575e-06
1.46575e-06
1.46779e-06
1.46822e-06
1.46931e-06
1.46936e-06
1.4677e-06
1.46575e-06
1.46577e-06
1.46582e-06
1.46582e-06
1.46582e-06
1.46577e-06
1.46575e-06
1.4678e-06
1.4683e-06
1.46943e-06
1.46808e-06
1.46571e-06
1.46575e-06
1.46582e-06
1.46584e-06
1.46586e-06
1.46584e-06
1.46582e-06
1.46575e-06
1.46571e-06
1.46826e-06
1.46948e-06
1.468e-06
1.46571e-06
1.46578e-06
1.46582e-06
1.46586e-06
1.46587e-06
1.46586e-06
1.46582e-06
1.46578e-06
1.46571e-06
1.46823e-06
1.46944e-06
1.46805e-06
1.46571e-06
1.46575e-06
1.46582e-06
1.46584e-06
1.46586e-06
1.46584e-06
1.46582e-06
1.46575e-06
1.46571e-06
1.46824e-06
1.46945e-06
1.46926e-06
1.46781e-06
1.46575e-06
1.46577e-06
1.46582e-06
1.46582e-06
1.46582e-06
1.46577e-06
1.46575e-06
1.46793e-06
1.4683e-06
1.46951e-06
1.46938e-06
1.46823e-06
1.46779e-06
1.46575e-06
1.46575e-06
1.46578e-06
1.46575e-06
1.46575e-06
1.4679e-06
1.46818e-06
1.4684e-06
1.46931e-06
1.46822e-06
1.4678e-06
1.46571e-06
1.46571e-06
1.46571e-06
1.46793e-06
1.46818e-06
1.46837e-06
1.46951e-06
1.46931e-06
1.4683e-06
1.46826e-06
1.46823e-06
1.46824e-06
1.4683e-06
1.4684e-06
1.46951e-06
1.46943e-06
1.46948e-06
1.46944e-06
1.46945e-06
1.46951e-06
1.4567e-06
1.45541e-06
1.45533e-06
1.45538e-06
1.45659e-06
1.45672e-06
1.45677e-06
1.4556e-06
1.45502e-06
1.45302e-06
1.45302e-06
1.45302e-06
1.45513e-06
1.45556e-06
1.45664e-06
1.4556e-06
1.45499e-06
1.45304e-06
1.45305e-06
1.45306e-06
1.45305e-06
1.45304e-06
1.4551e-06
1.45555e-06
1.45665e-06
1.4567e-06
1.45502e-06
1.45304e-06
1.45306e-06
1.45308e-06
1.45309e-06
1.45308e-06
1.45306e-06
1.45304e-06
1.45512e-06
1.45563e-06
1.45676e-06
1.45541e-06
1.45302e-06
1.45305e-06
1.45309e-06
1.4531e-06
1.45311e-06
1.4531e-06
1.45309e-06
1.45305e-06
1.45302e-06
1.45559e-06
1.45682e-06
1.45533e-06
1.45302e-06
1.45306e-06
1.45309e-06
1.45311e-06
1.45312e-06
1.45311e-06
1.45309e-06
1.45306e-06
1.45302e-06
1.45555e-06
1.45678e-06
1.45538e-06
1.45302e-06
1.45305e-06
1.45308e-06
1.4531e-06
1.45311e-06
1.4531e-06
1.45308e-06
1.45305e-06
1.45302e-06
1.45557e-06
1.45678e-06
1.45659e-06
1.45513e-06
1.45304e-06
1.45306e-06
1.45309e-06
1.45309e-06
1.45309e-06
1.45306e-06
1.45304e-06
1.45525e-06
1.45563e-06
1.45684e-06
1.45672e-06
1.45556e-06
1.4551e-06
1.45304e-06
1.45305e-06
1.45306e-06
1.45305e-06
1.45304e-06
1.45522e-06
1.45551e-06
1.45574e-06
1.45664e-06
1.45555e-06
1.45512e-06
1.45302e-06
1.45302e-06
1.45302e-06
1.45525e-06
1.45551e-06
1.45571e-06
1.45685e-06
1.45665e-06
1.45563e-06
1.45559e-06
1.45555e-06
1.45557e-06
1.45563e-06
1.45574e-06
1.45685e-06
1.45676e-06
1.45682e-06
1.45678e-06
1.45678e-06
1.45684e-06
1.44403e-06
1.44275e-06
1.44266e-06
1.44271e-06
1.44393e-06
1.44405e-06
1.4441e-06
1.44293e-06
1.44234e-06
1.44034e-06
1.44034e-06
1.44034e-06
1.44246e-06
1.44289e-06
1.44398e-06
1.44293e-06
1.44231e-06
1.44035e-06
1.44036e-06
1.44036e-06
1.44036e-06
1.44035e-06
1.44242e-06
1.44288e-06
1.44399e-06
1.44403e-06
1.44234e-06
1.44035e-06
1.44036e-06
1.44038e-06
1.44038e-06
1.44038e-06
1.44036e-06
1.44035e-06
1.44244e-06
1.44297e-06
1.4441e-06
1.44275e-06
1.44034e-06
1.44036e-06
1.44038e-06
1.44039e-06
1.4404e-06
1.44039e-06
1.44038e-06
1.44036e-06
1.44034e-06
1.44292e-06
1.44415e-06
1.44266e-06
1.44034e-06
1.44036e-06
1.44038e-06
1.4404e-06
1.4404e-06
1.4404e-06
1.44038e-06
1.44036e-06
1.44034e-06
1.44288e-06
1.44411e-06
1.44271e-06
1.44034e-06
1.44036e-06
1.44038e-06
1.44039e-06
1.4404e-06
1.44039e-06
1.44038e-06
1.44036e-06
1.44034e-06
1.4429e-06
1.44412e-06
1.44393e-06
1.44246e-06
1.44035e-06
1.44036e-06
1.44038e-06
1.44038e-06
1.44038e-06
1.44036e-06
1.44035e-06
1.44258e-06
1.44297e-06
1.44418e-06
1.44405e-06
1.44289e-06
1.44242e-06
1.44035e-06
1.44036e-06
1.44036e-06
1.44036e-06
1.44035e-06
1.44254e-06
1.44284e-06
1.44307e-06
1.44398e-06
1.44288e-06
1.44244e-06
1.44034e-06
1.44034e-06
1.44034e-06
1.44258e-06
1.44284e-06
1.44304e-06
1.44418e-06
1.44399e-06
1.44297e-06
1.44292e-06
1.44288e-06
1.4429e-06
1.44297e-06
1.44307e-06
1.44418e-06
1.4441e-06
1.44415e-06
1.44411e-06
1.44412e-06
1.44418e-06
1.43136e-06
1.43008e-06
1.42999e-06
1.43004e-06
1.43126e-06
1.43138e-06
1.43143e-06
1.43026e-06
1.42967e-06
1.42767e-06
1.42767e-06
1.42767e-06
1.42979e-06
1.43022e-06
1.43131e-06
1.43026e-06
1.42964e-06
1.42767e-06
1.42768e-06
1.42768e-06
1.42768e-06
1.42767e-06
1.42975e-06
1.43021e-06
1.43132e-06
1.43136e-06
1.42967e-06
1.42767e-06
1.42768e-06
1.42769e-06
1.42769e-06
1.42769e-06
1.42768e-06
1.42767e-06
1.42977e-06
1.4303e-06
1.43143e-06
1.43008e-06
1.42767e-06
1.42768e-06
1.42769e-06
1.4277e-06
1.4277e-06
1.4277e-06
1.42769e-06
1.42768e-06
1.42767e-06
1.43025e-06
1.43149e-06
1.42999e-06
1.42767e-06
1.42768e-06
1.42769e-06
1.4277e-06
1.4277e-06
1.4277e-06
1.42769e-06
1.42768e-06
1.42767e-06
1.43021e-06
1.43145e-06
1.43004e-06
1.42767e-06
1.42768e-06
1.42769e-06
1.4277e-06
1.4277e-06
1.4277e-06
1.42769e-06
1.42768e-06
1.42767e-06
1.43023e-06
1.43145e-06
1.43126e-06
1.42979e-06
1.42767e-06
1.42768e-06
1.42769e-06
1.42769e-06
1.42769e-06
1.42768e-06
1.42767e-06
1.42991e-06
1.4303e-06
1.43151e-06
1.43138e-06
1.43022e-06
1.42975e-06
1.42767e-06
1.42768e-06
1.42768e-06
1.42768e-06
1.42767e-06
1.42987e-06
1.43018e-06
1.4304e-06
1.43131e-06
1.43021e-06
1.42977e-06
1.42767e-06
1.42767e-06
1.42767e-06
1.42991e-06
1.43018e-06
1.43037e-06
1.43151e-06
1.43132e-06
1.4303e-06
1.43025e-06
1.43021e-06
1.43023e-06
1.4303e-06
1.4304e-06
1.43151e-06
1.43143e-06
1.43149e-06
1.43145e-06
1.43145e-06
1.43151e-06
1.4187e-06
1.41741e-06
1.41732e-06
1.41737e-06
1.41859e-06
1.41871e-06
1.41877e-06
1.41759e-06
1.417e-06
1.415e-06
1.415e-06
1.415e-06
1.41712e-06
1.41755e-06
1.41864e-06
1.41759e-06
1.41697e-06
1.415e-06
1.415e-06
1.415e-06
1.415e-06
1.415e-06
1.41708e-06
1.41754e-06
1.41865e-06
1.4187e-06
1.417e-06
1.415e-06
1.415e-06
1.41501e-06
1.41501e-06
1.41501e-06
1.415e-06
1.415e-06
1.4171e-06
1.41763e-06
1.41876e-06
1.41741e-06
1.415e-06
1.415e-06
1.41501e-06
1.41501e-06
1.41501e-06
1.41501e-06
1.41501e-06
1.415e-06
1.415e-06
1.41759e-06
1.41882e-06
1.41732e-06
1.415e-06
1.415e-06
1.41501e-06
1.41501e-06
1.41502e-06
1.41501e-06
1.41501e-06
1.415e-06
1.415e-06
1.41754e-06
1.41878e-06
1.41737e-06
1.415e-06
1.415e-06
1.41501e-06
1.41501e-06
1.41501e-06
1.41501e-06
1.41501e-06
1.415e-06
1.415e-06
1.41756e-06
1.41878e-06
1.41859e-06
1.41712e-06
1.415e-06
1.415e-06
1.41501e-06
1.41501e-06
1.41501e-06
1.415e-06
1.415e-06
1.41724e-06
1.41763e-06
1.41884e-06
1.41871e-06
1.41755e-06
1.41708e-06
1.415e-06
1.415e-06
1.415e-06
1.415e-06
1.415e-06
1.4172e-06
1.41751e-06
1.41774e-06
1.41864e-06
1.41754e-06
1.4171e-06
1.415e-06
1.415e-06
1.415e-06
1.41724e-06
1.41751e-06
1.41771e-06
1.41885e-06
1.41865e-06
1.41763e-06
1.41759e-06
1.41754e-06
1.41756e-06
1.41763e-06
1.41774e-06
1.41885e-06
1.41876e-06
1.41882e-06
1.41878e-06
1.41878e-06
1.41884e-06
1.40603e-06
1.40474e-06
1.40465e-06
1.4047e-06
1.40592e-06
1.40605e-06
1.4061e-06
1.40492e-06
1.40433e-06
1.40233e-06
1.40233e-06
1.40233e-06
1.40445e-06
1.40488e-06
1.40597e-06
1.40492e-06
1.4043e-06
1.40233e-06
1.40233e-06
1.40233e-06
1.40233e-06
1.40233e-06
1.40441e-06
1.40487e-06
1.40598e-06
1.40603e-06
1.40433e-06
1.40233e-06
1.40233e-06
1.40233e-06
1.40233e-06
1.40233e-06
1.40233e-06
1.40233e-06
1.40443e-06
1.40496e-06
1.40609e-06
1.40474e-06
1.40233e-06
1.40233e-06
1.40233e-06
1.40234e-06
1.40234e-06
1.40234e-06
1.40233e-06
1.40233e-06
1.40233e-06
1.40492e-06
1.40615e-06
1.40465e-06
1.40233e-06
1.40233e-06
1.40233e-06
1.40234e-06
1.40234e-06
1.40234e-06
1.40233e-06
1.40233e-06
1.40233e-06
1.40488e-06
1.40611e-06
1.4047e-06
1.40233e-06
1.40233e-06
1.40233e-06
1.40234e-06
1.40234e-06
1.40234e-06
1.40233e-06
1.40233e-06
1.40233e-06
1.40489e-06
1.40611e-06
1.40592e-06
1.40445e-06
1.40233e-06
1.40233e-06
1.40233e-06
1.40233e-06
1.40233e-06
1.40233e-06
1.40233e-06
1.40457e-06
1.40496e-06
1.40617e-06
1.40605e-06
1.40488e-06
1.40441e-06
1.40233e-06
1.40233e-06
1.40233e-06
1.40233e-06
1.40233e-06
1.40453e-06
1.40484e-06
1.40507e-06
1.40597e-06
1.40487e-06
1.40443e-06
1.40233e-06
1.40233e-06
1.40233e-06
1.40457e-06
1.40484e-06
1.40504e-06
1.40618e-06
1.40598e-06
1.40496e-06
1.40492e-06
1.40487e-06
1.40489e-06
1.40496e-06
1.40507e-06
1.40618e-06
1.40609e-06
1.40615e-06
1.40611e-06
1.40611e-06
1.40617e-06
1.39336e-06
1.39207e-06
1.39198e-06
1.39203e-06
1.39325e-06
1.39338e-06
1.39343e-06
1.39225e-06
1.39166e-06
1.38966e-06
1.38966e-06
1.38966e-06
1.39178e-06
1.39221e-06
1.39331e-06
1.39225e-06
1.39163e-06
1.38966e-06
1.38966e-06
1.38966e-06
1.38966e-06
1.38966e-06
1.39174e-06
1.3922e-06
1.39331e-06
1.39336e-06
1.39166e-06
1.38966e-06
1.38966e-06
1.38966e-06
1.38966e-06
1.38966e-06
1.38966e-06
1.38966e-06
1.39176e-06
1.39229e-06
1.39342e-06
1.39207e-06
1.38966e-06
1.38966e-06
1.38966e-06
1.38966e-06
1.38966e-06
1.38966e-06
1.38966e-06
1.38966e-06
1.38966e-06
1.39225e-06
1.39348e-06
1.39198e-06
1.38966e-06
1.38966e-06
1.38966e-06
1.38966e-06
1.38966e-06
1.38966e-06
1.38966e-06
1.38966e-06
1.38966e-06
1.39221e-06
1.39344e-06
1.39203e-06
1.38966e-06
1.38966e-06
1.38966e-06
1.38966e-06
1.38966e-06
1.38966e-06
1.38966e-06
1.38966e-06
1.38966e-06
1.39222e-06
1.39344e-06
1.39325e-06
1.39178e-06
1.38966e-06
1.38966e-06
1.38966e-06
1.38966e-06
1.38966e-06
1.38966e-06
1.38966e-06
1.3919e-06
1.39229e-06
1.39351e-06
1.39338e-06
1.39221e-06
1.39174e-06
1.38966e-06
1.38966e-06
1.38966e-06
1.38966e-06
1.38966e-06
1.39186e-06
1.39217e-06
1.3924e-06
1.39331e-06
1.3922e-06
1.39176e-06
1.38966e-06
1.38966e-06
1.38966e-06
1.3919e-06
1.39217e-06
1.39237e-06
1.39351e-06
1.39331e-06
1.39229e-06
1.39225e-06
1.39221e-06
1.39222e-06
1.39229e-06
1.3924e-06
1.39351e-06
1.39342e-06
1.39348e-06
1.39344e-06
1.39344e-06
1.39351e-06
1.38069e-06
1.3794e-06
1.37931e-06
1.37937e-06
1.38058e-06
1.38071e-06
1.38076e-06
1.37958e-06
1.37899e-06
1.37699e-06
1.37699e-06
1.37699e-06
1.37911e-06
1.37954e-06
1.38064e-06
1.37958e-06
1.37896e-06
1.37699e-06
1.37699e-06
1.37699e-06
1.37699e-06
1.37699e-06
1.37907e-06
1.37953e-06
1.38064e-06
1.38069e-06
1.37899e-06
1.37699e-06
1.37699e-06
1.37699e-06
1.37699e-06
1.37699e-06
1.37699e-06
1.37699e-06
1.3791e-06
1.37962e-06
1.38076e-06
1.3794e-06
1.37699e-06
1.37699e-06
1.37699e-06
1.37699e-06
1.37699e-06
1.37699e-06
1.37699e-06
1.37699e-06
1.37699e-06
1.37958e-06
1.38081e-06
1.37931e-06
1.37699e-06
1.37699e-06
1.37699e-06
1.37699e-06
1.37699e-06
1.37699e-06
1.37699e-06
1.37699e-06
1.37699e-06
1.37954e-06
1.38077e-06
1.37937e-06
1.37699e-06
1.37699e-06
1.37699e-06
1.37699e-06
1.37699e-06
1.37699e-06
1.37699e-06
1.37699e-06
1.37699e-06
1.37956e-06
1.38078e-06
1.38058e-06
1.37911e-06
1.37699e-06
1.37699e-06
1.37699e-06
1.37699e-06
1.37699e-06
1.37699e-06
1.37699e-06
1.37923e-06
1.37962e-06
1.38084e-06
1.38071e-06
1.37954e-06
1.37907e-06
1.37699e-06
1.37699e-06
1.37699e-06
1.37699e-06
1.37699e-06
1.37919e-06
1.3795e-06
1.37973e-06
1.38064e-06
1.37953e-06
1.3791e-06
1.37699e-06
1.37699e-06
1.37699e-06
1.37923e-06
1.3795e-06
1.3797e-06
1.38084e-06
1.38064e-06
1.37962e-06
1.37958e-06
1.37954e-06
1.37956e-06
1.37962e-06
1.37973e-06
1.38084e-06
1.38076e-06
1.38081e-06
1.38077e-06
1.38077e-06
1.38084e-06
1.36802e-06
1.36673e-06
1.36665e-06
1.3667e-06
1.36791e-06
1.36804e-06
1.36809e-06
1.36691e-06
1.36632e-06
1.36432e-06
1.36432e-06
1.36432e-06
1.36644e-06
1.36687e-06
1.36797e-06
1.36691e-06
1.36629e-06
1.36432e-06
1.36432e-06
1.36432e-06
1.36432e-06
1.36432e-06
1.3664e-06
1.36687e-06
1.36798e-06
1.36802e-06
1.36632e-06
1.36432e-06
1.36432e-06
1.36432e-06
1.36432e-06
1.36432e-06
1.36432e-06
1.36432e-06
1.36643e-06
1.36696e-06
1.36809e-06
1.36673e-06
1.36432e-06
1.36432e-06
1.36432e-06
1.36432e-06
1.36432e-06
1.36432e-06
1.36432e-06
1.36432e-06
1.36432e-06
1.36691e-06
1.36814e-06
1.36665e-06
1.36432e-06
1.36432e-06
1.36432e-06
1.36432e-06
1.36432e-06
1.36432e-06
1.36432e-06
1.36432e-06
1.36432e-06
1.36687e-06
1.3681e-06
1.3667e-06
1.36432e-06
1.36432e-06
1.36432e-06
1.36432e-06
1.36432e-06
1.36432e-06
1.36432e-06
1.36432e-06
1.36432e-06
1.36689e-06
1.36811e-06
1.36791e-06
1.36644e-06
1.36432e-06
1.36432e-06
1.36432e-06
1.36432e-06
1.36432e-06
1.36432e-06
1.36432e-06
1.36657e-06
1.36696e-06
1.36817e-06
1.36804e-06
1.36687e-06
1.3664e-06
1.36432e-06
1.36432e-06
1.36432e-06
1.36432e-06
1.36432e-06
1.36652e-06
1.36683e-06
1.36706e-06
1.36797e-06
1.36687e-06
1.36643e-06
1.36432e-06
1.36432e-06
1.36432e-06
1.36657e-06
1.36683e-06
1.36703e-06
1.36817e-06
1.36798e-06
1.36696e-06
1.36691e-06
1.36687e-06
1.36689e-06
1.36696e-06
1.36706e-06
1.36817e-06
1.36809e-06
1.36814e-06
1.3681e-06
1.36811e-06
1.36817e-06
1.35535e-06
1.35406e-06
1.35398e-06
1.35403e-06
1.35525e-06
1.35537e-06
1.35542e-06
1.35424e-06
1.35366e-06
1.35165e-06
1.35165e-06
1.35165e-06
1.35377e-06
1.3542e-06
1.3553e-06
1.35424e-06
1.35363e-06
1.35165e-06
1.35165e-06
1.35165e-06
1.35165e-06
1.35165e-06
1.35373e-06
1.3542e-06
1.35531e-06
1.35535e-06
1.35366e-06
1.35165e-06
1.35165e-06
1.35165e-06
1.35165e-06
1.35165e-06
1.35165e-06
1.35165e-06
1.35376e-06
1.35429e-06
1.35542e-06
1.35406e-06
1.35165e-06
1.35165e-06
1.35165e-06
1.35165e-06
1.35165e-06
1.35165e-06
1.35165e-06
1.35165e-06
1.35165e-06
1.35424e-06
1.35547e-06
1.35398e-06
1.35165e-06
1.35165e-06
1.35165e-06
1.35165e-06
1.35165e-06
1.35165e-06
1.35165e-06
1.35165e-06
1.35165e-06
1.3542e-06
1.35543e-06
1.35403e-06
1.35165e-06
1.35165e-06
1.35165e-06
1.35165e-06
1.35165e-06
1.35165e-06
1.35165e-06
1.35165e-06
1.35165e-06
1.35422e-06
1.35544e-06
1.35525e-06
1.35377e-06
1.35165e-06
1.35165e-06
1.35165e-06
1.35165e-06
1.35165e-06
1.35165e-06
1.35165e-06
1.3539e-06
1.35429e-06
1.3555e-06
1.35537e-06
1.3542e-06
1.35373e-06
1.35165e-06
1.35165e-06
1.35165e-06
1.35165e-06
1.35165e-06
1.35386e-06
1.35416e-06
1.35439e-06
1.3553e-06
1.3542e-06
1.35376e-06
1.35165e-06
1.35165e-06
1.35165e-06
1.3539e-06
1.35416e-06
1.35436e-06
1.3555e-06
1.35531e-06
1.35429e-06
1.35424e-06
1.3542e-06
1.35422e-06
1.35429e-06
1.35439e-06
1.3555e-06
1.35542e-06
1.35547e-06
1.35543e-06
1.35544e-06
1.3555e-06
1.34268e-06
1.34139e-06
1.34131e-06
1.34136e-06
1.34258e-06
1.3427e-06
1.34275e-06
1.34157e-06
1.34099e-06
1.33898e-06
1.33898e-06
1.33898e-06
1.3411e-06
1.34154e-06
1.34263e-06
1.34158e-06
1.34096e-06
1.33898e-06
1.33898e-06
1.33898e-06
1.33898e-06
1.33898e-06
1.34107e-06
1.34153e-06
1.34264e-06
1.34268e-06
1.34099e-06
1.33898e-06
1.33898e-06
1.33898e-06
1.33898e-06
1.33898e-06
1.33898e-06
1.33898e-06
1.34109e-06
1.34162e-06
1.34275e-06
1.34139e-06
1.33898e-06
1.33898e-06
1.33898e-06
1.33898e-06
1.33898e-06
1.33898e-06
1.33898e-06
1.33898e-06
1.33898e-06
1.34157e-06
1.3428e-06
1.34131e-06
1.33898e-06
1.33898e-06
1.33898e-06
1.33898e-06
1.33898e-06
1.33898e-06
1.33898e-06
1.33898e-06
1.33898e-06
1.34153e-06
1.34276e-06
1.34136e-06
1.33898e-06
1.33898e-06
1.33898e-06
1.33898e-06
1.33898e-06
1.33898e-06
1.33898e-06
1.33898e-06
1.33898e-06
1.34155e-06
1.34277e-06
1.34258e-06
1.3411e-06
1.33898e-06
1.33898e-06
1.33898e-06
1.33898e-06
1.33898e-06
1.33898e-06
1.33898e-06
1.34123e-06
1.34162e-06
1.34283e-06
1.3427e-06
1.34153e-06
1.34107e-06
1.33898e-06
1.33898e-06
1.33898e-06
1.33898e-06
1.33898e-06
1.34119e-06
1.34149e-06
1.34172e-06
1.34263e-06
1.34153e-06
1.34109e-06
1.33898e-06
1.33898e-06
1.33898e-06
1.34123e-06
1.34149e-06
1.34169e-06
1.34283e-06
1.34264e-06
1.34162e-06
1.34157e-06
1.34153e-06
1.34155e-06
1.34162e-06
1.34172e-06
1.34283e-06
1.34275e-06
1.3428e-06
1.34276e-06
1.34277e-06
1.34283e-06
1.33001e-06
1.32873e-06
1.32864e-06
1.32869e-06
1.32991e-06
1.33003e-06
1.33008e-06
1.32891e-06
1.32832e-06
1.32631e-06
1.32631e-06
1.32631e-06
1.32843e-06
1.32887e-06
1.32996e-06
1.32891e-06
1.32829e-06
1.32631e-06
1.32631e-06
1.32631e-06
1.32631e-06
1.32631e-06
1.3284e-06
1.32886e-06
1.32997e-06
1.33001e-06
1.32832e-06
1.32631e-06
1.32631e-06
1.32631e-06
1.32631e-06
1.32631e-06
1.32631e-06
1.32631e-06
1.32842e-06
1.32895e-06
1.33008e-06
1.32873e-06
1.32631e-06
1.32631e-06
1.32631e-06
1.32631e-06
1.32631e-06
1.32631e-06
1.32631e-06
1.32631e-06
1.32631e-06
1.3289e-06
1.33013e-06
1.32864e-06
1.32631e-06
1.32631e-06
1.32631e-06
1.32631e-06
1.32631e-06
1.32631e-06
1.32631e-06
1.32631e-06
1.32631e-06
1.32886e-06
1.3301e-06
1.32869e-06
1.32631e-06
1.32631e-06
1.32631e-06
1.32631e-06
1.32631e-06
1.32631e-06
1.32631e-06
1.32631e-06
1.32631e-06
1.32888e-06
1.3301e-06
1.32991e-06
1.32843e-06
1.32631e-06
1.32631e-06
1.32631e-06
1.32631e-06
1.32631e-06
1.32631e-06
1.32631e-06
1.32856e-06
1.32895e-06
1.33016e-06
1.33003e-06
1.32887e-06
1.3284e-06
1.32631e-06
1.32631e-06
1.32631e-06
1.32631e-06
1.32631e-06
1.32852e-06
1.32883e-06
1.32905e-06
1.32996e-06
1.32886e-06
1.32842e-06
1.32631e-06
1.32631e-06
1.32631e-06
1.32856e-06
1.32883e-06
1.32902e-06
1.33016e-06
1.32997e-06
1.32895e-06
1.3289e-06
1.32886e-06
1.32888e-06
1.32895e-06
1.32905e-06
1.33016e-06
1.33008e-06
1.33013e-06
1.3301e-06
1.3301e-06
1.33016e-06
1.31735e-06
1.31606e-06
1.31597e-06
1.31602e-06
1.31724e-06
1.31736e-06
1.31741e-06
1.31624e-06
1.31565e-06
1.31364e-06
1.31364e-06
1.31364e-06
1.31576e-06
1.3162e-06
1.31729e-06
1.31624e-06
1.31562e-06
1.31364e-06
1.31364e-06
1.31364e-06
1.31364e-06
1.31364e-06
1.31573e-06
1.31619e-06
1.3173e-06
1.31735e-06
1.31565e-06
1.31364e-06
1.31364e-06
1.31364e-06
1.31364e-06
1.31364e-06
1.31364e-06
1.31364e-06
1.31575e-06
1.31628e-06
1.31741e-06
1.31606e-06
1.31364e-06
1.31364e-06
1.31364e-06
1.31364e-06
1.31364e-06
1.31364e-06
1.31364e-06
1.31364e-06
1.31364e-06
1.31623e-06
1.31747e-06
1.31597e-06
1.31364e-06
1.31364e-06
1.31364e-06
1.31364e-06
1.31364e-06
1.31364e-06
1.31364e-06
1.31364e-06
1.31364e-06
1.31619e-06
1.31743e-06
1.31602e-06
1.31364e-06
1.31364e-06
1.31364e-06
1.31364e-06
1.31364e-06
1.31364e-06
1.31364e-06
1.31364e-06
1.31364e-06
1.31621e-06
1.31743e-06
1.31724e-06
1.31576e-06
1.31364e-06
1.31364e-06
1.31364e-06
1.31364e-06
1.31364e-06
1.31364e-06
1.31364e-06
1.31589e-06
1.31628e-06
1.31749e-06
1.31736e-06
1.3162e-06
1.31573e-06
1.31364e-06
1.31364e-06
1.31364e-06
1.31364e-06
1.31364e-06
1.31585e-06
1.31616e-06
1.31638e-06
1.31729e-06
1.31619e-06
1.31575e-06
1.31364e-06
1.31364e-06
1.31364e-06
1.31589e-06
1.31616e-06
1.31635e-06
1.3175e-06
1.3173e-06
1.31628e-06
1.31623e-06
1.31619e-06
1.31621e-06
1.31628e-06
1.31638e-06
1.31749e-06
1.31741e-06
1.31747e-06
1.31743e-06
1.31743e-06
1.31749e-06
1.30468e-06
1.30339e-06
1.3033e-06
1.30335e-06
1.30457e-06
1.30469e-06
1.30475e-06
1.30357e-06
1.30298e-06
1.30097e-06
1.30098e-06
1.30097e-06
1.30309e-06
1.30353e-06
1.30462e-06
1.30357e-06
1.30295e-06
1.30097e-06
1.30098e-06
1.30098e-06
1.30098e-06
1.30097e-06
1.30306e-06
1.30352e-06
1.30463e-06
1.30468e-06
1.30298e-06
1.30097e-06
1.30098e-06
1.30097e-06
1.30098e-06
1.30098e-06
1.30098e-06
1.30097e-06
1.30308e-06
1.30361e-06
1.30474e-06
1.30339e-06
1.30097e-06
1.30098e-06
1.30097e-06
1.30098e-06
1.30098e-06
1.30098e-06
1.30098e-06
1.30098e-06
1.30097e-06
1.30357e-06
1.3048e-06
1.3033e-06
1.30098e-06
1.30098e-06
1.30098e-06
1.30098e-06
1.30098e-06
1.30098e-06
1.30098e-06
1.30098e-06
1.30098e-06
1.30352e-06
1.30476e-06
1.30335e-06
1.30097e-06
1.30098e-06
1.30098e-06
1.30098e-06
1.30098e-06
1.30098e-06
1.30098e-06
1.30098e-06
1.30097e-06
1.30354e-06
1.30476e-06
1.30457e-06
1.30309e-06
1.30097e-06
1.30098e-06
1.30098e-06
1.30098e-06
1.30098e-06
1.30098e-06
1.30097e-06
1.30322e-06
1.30361e-06
1.30482e-06
1.30469e-06
1.30353e-06
1.30306e-06
1.30097e-06
1.30098e-06
1.30098e-06
1.30098e-06
1.30097e-06
1.30318e-06
1.30349e-06
1.30372e-06
1.30462e-06
1.30352e-06
1.30308e-06
1.30097e-06
1.30098e-06
1.30097e-06
1.30322e-06
1.30349e-06
1.30369e-06
1.30483e-06
1.30463e-06
1.30361e-06
1.30357e-06
1.30352e-06
1.30354e-06
1.30361e-06
1.30372e-06
1.30483e-06
1.30474e-06
1.3048e-06
1.30476e-06
1.30476e-06
1.30482e-06
1.29201e-06
1.29072e-06
1.29063e-06
1.29068e-06
1.2919e-06
1.29203e-06
1.29208e-06
1.2909e-06
1.29031e-06
1.28831e-06
1.28831e-06
1.28831e-06
1.29043e-06
1.29086e-06
1.29195e-06
1.2909e-06
1.29028e-06
1.28831e-06
1.28831e-06
1.28831e-06
1.28831e-06
1.28831e-06
1.29039e-06
1.29085e-06
1.29196e-06
1.29201e-06
1.29031e-06
1.28831e-06
1.28831e-06
1.28831e-06
1.28831e-06
1.28831e-06
1.28831e-06
1.28831e-06
1.29041e-06
1.29094e-06
1.29207e-06
1.29072e-06
1.28831e-06
1.28831e-06
1.28831e-06
1.28831e-06
1.28831e-06
1.28831e-06
1.28831e-06
1.28831e-06
1.28831e-06
1.2909e-06
1.29213e-06
1.29063e-06
1.28831e-06
1.28831e-06
1.28831e-06
1.28831e-06
1.28831e-06
1.28831e-06
1.28831e-06
1.28831e-06
1.28831e-06
1.29085e-06
1.29209e-06
1.29068e-06
1.28831e-06
1.28831e-06
1.28831e-06
1.28831e-06
1.28831e-06
1.28831e-06
1.28831e-06
1.28831e-06
1.28831e-06
1.29087e-06
1.29209e-06
1.2919e-06
1.29042e-06
1.28831e-06
1.28831e-06
1.28831e-06
1.28831e-06
1.28831e-06
1.28831e-06
1.28831e-06
1.29055e-06
1.29094e-06
1.29215e-06
1.29203e-06
1.29086e-06
1.29039e-06
1.28831e-06
1.28831e-06
1.28831e-06
1.28831e-06
1.28831e-06
1.29051e-06
1.29082e-06
1.29105e-06
1.29195e-06
1.29085e-06
1.29041e-06
1.28831e-06
1.28831e-06
1.28831e-06
1.29055e-06
1.29082e-06
1.29102e-06
1.29216e-06
1.29196e-06
1.29094e-06
1.2909e-06
1.29085e-06
1.29087e-06
1.29094e-06
1.29105e-06
1.29216e-06
1.29207e-06
1.29213e-06
1.29209e-06
1.29209e-06
1.29215e-06
1.27934e-06
1.27805e-06
1.27796e-06
1.27801e-06
1.27923e-06
1.27936e-06
1.27941e-06
1.27823e-06
1.27764e-06
1.27564e-06
1.27564e-06
1.27564e-06
1.27776e-06
1.27819e-06
1.27929e-06
1.27823e-06
1.27761e-06
1.27564e-06
1.27564e-06
1.27564e-06
1.27564e-06
1.27564e-06
1.27772e-06
1.27818e-06
1.27929e-06
1.27934e-06
1.27764e-06
1.27564e-06
1.27564e-06
1.27564e-06
1.27564e-06
1.27564e-06
1.27564e-06
1.27564e-06
1.27774e-06
1.27827e-06
1.2794e-06
1.27805e-06
1.27564e-06
1.27564e-06
1.27564e-06
1.27564e-06
1.27564e-06
1.27564e-06
1.27564e-06
1.27564e-06
1.27564e-06
1.27823e-06
1.27946e-06
1.27796e-06
1.27564e-06
1.27564e-06
1.27564e-06
1.27564e-06
1.27564e-06
1.27564e-06
1.27564e-06
1.27564e-06
1.27564e-06
1.27819e-06
1.27942e-06
1.27801e-06
1.27564e-06
1.27564e-06
1.27564e-06
1.27564e-06
1.27564e-06
1.27564e-06
1.27564e-06
1.27564e-06
1.27564e-06
1.2782e-06
1.27942e-06
1.27923e-06
1.27776e-06
1.27564e-06
1.27564e-06
1.27564e-06
1.27564e-06
1.27564e-06
1.27564e-06
1.27564e-06
1.27788e-06
1.27827e-06
1.27949e-06
1.27936e-06
1.27819e-06
1.27772e-06
1.27564e-06
1.27564e-06
1.27564e-06
1.27564e-06
1.27564e-06
1.27784e-06
1.27815e-06
1.27838e-06
1.27929e-06
1.27818e-06
1.27774e-06
1.27564e-06
1.27564e-06
1.27564e-06
1.27788e-06
1.27815e-06
1.27835e-06
1.27949e-06
1.27929e-06
1.27827e-06
1.27823e-06
1.27819e-06
1.2782e-06
1.27827e-06
1.27838e-06
1.27949e-06
1.2794e-06
1.27946e-06
1.27942e-06
1.27942e-06
1.27949e-06
1.26667e-06
1.26538e-06
1.26529e-06
1.26535e-06
1.26656e-06
1.26669e-06
1.26674e-06
1.26556e-06
1.26497e-06
1.26297e-06
1.26297e-06
1.26297e-06
1.26509e-06
1.26552e-06
1.26662e-06
1.26556e-06
1.26494e-06
1.26297e-06
1.26297e-06
1.26297e-06
1.26297e-06
1.26297e-06
1.26505e-06
1.26551e-06
1.26662e-06
1.26667e-06
1.26497e-06
1.26297e-06
1.26297e-06
1.26297e-06
1.26297e-06
1.26297e-06
1.26297e-06
1.26297e-06
1.26507e-06
1.2656e-06
1.26674e-06
1.26538e-06
1.26297e-06
1.26297e-06
1.26297e-06
1.26297e-06
1.26297e-06
1.26297e-06
1.26297e-06
1.26297e-06
1.26297e-06
1.26556e-06
1.26679e-06
1.26529e-06
1.26297e-06
1.26297e-06
1.26297e-06
1.26297e-06
1.26297e-06
1.26297e-06
1.26297e-06
1.26297e-06
1.26297e-06
1.26552e-06
1.26675e-06
1.26535e-06
1.26297e-06
1.26297e-06
1.26297e-06
1.26297e-06
1.26297e-06
1.26297e-06
1.26297e-06
1.26297e-06
1.26297e-06
1.26553e-06
1.26675e-06
1.26656e-06
1.26509e-06
1.26297e-06
1.26297e-06
1.26297e-06
1.26297e-06
1.26297e-06
1.26297e-06
1.26297e-06
1.26521e-06
1.2656e-06
1.26682e-06
1.26669e-06
1.26552e-06
1.26505e-06
1.26297e-06
1.26297e-06
1.26297e-06
1.26297e-06
1.26297e-06
1.26517e-06
1.26548e-06
1.26571e-06
1.26662e-06
1.26551e-06
1.26507e-06
1.26297e-06
1.26297e-06
1.26297e-06
1.26521e-06
1.26548e-06
1.26568e-06
1.26682e-06
1.26662e-06
1.2656e-06
1.26556e-06
1.26552e-06
1.26553e-06
1.2656e-06
1.26571e-06
1.26682e-06
1.26674e-06
1.26679e-06
1.26675e-06
1.26675e-06
1.26682e-06
1.254e-06
1.25271e-06
1.25262e-06
1.25268e-06
1.25389e-06
1.25402e-06
1.25407e-06
1.25289e-06
1.2523e-06
1.2503e-06
1.2503e-06
1.2503e-06
1.25242e-06
1.25285e-06
1.25395e-06
1.25289e-06
1.25227e-06
1.2503e-06
1.2503e-06
1.2503e-06
1.2503e-06
1.2503e-06
1.25238e-06
1.25284e-06
1.25395e-06
1.254e-06
1.2523e-06
1.2503e-06
1.2503e-06
1.2503e-06
1.2503e-06
1.2503e-06
1.2503e-06
1.2503e-06
1.25241e-06
1.25293e-06
1.25407e-06
1.25271e-06
1.2503e-06
1.2503e-06
1.2503e-06
1.2503e-06
1.2503e-06
1.2503e-06
1.2503e-06
1.2503e-06
1.2503e-06
1.25289e-06
1.25412e-06
1.25262e-06
1.2503e-06
1.2503e-06
1.2503e-06
1.2503e-06
1.2503e-06
1.2503e-06
1.2503e-06
1.2503e-06
1.2503e-06
1.25285e-06
1.25408e-06
1.25268e-06
1.2503e-06
1.2503e-06
1.2503e-06
1.2503e-06
1.2503e-06
1.2503e-06
1.2503e-06
1.2503e-06
1.2503e-06
1.25287e-06