/*--------------------------------*- C++ -*----------------------------------*\
| =========                 |                                                 |
| \\      /  F ield         | OpenFOAM: The Open Source CFD Toolbox           |
|  \\    /   O peration     | Version:  v2012                                 |
|   \\  /    A nd           | Website:  www.openfoam.com                      |
|    \\/     M anipulation  |                                                 |
\*---------------------------------------------------------------------------*/
FoamFile
{
    version     2.0;
    format      ascii;
    class       volScalarField;
    location    "94";
    object      p;
}
// * * * * * * * * * * * * * * * * * * * * * * * * * * * * * * * * * * * * * //

dimensions      [0 2 -2 0 0 0 0];


internalField   nonuniform List<scalar> 
292667
(
9.54839e-07
9.46183e-07
9.45584e-07
9.45634e-07
9.46423e-07
9.55642e-07
9.46382e-07
9.44358e-07
9.43156e-07
9.42658e-07
9.42721e-07
9.43364e-07
9.44741e-07
9.46924e-07
9.46382e-07
9.43775e-07
9.42119e-07
9.41199e-07
9.4081e-07
9.40861e-07
9.41362e-07
9.42427e-07
9.44281e-07
9.47046e-07
9.5484e-07
9.44358e-07
9.42119e-07
9.40771e-07
9.40015e-07
9.39691e-07
9.39734e-07
9.40153e-07
9.4103e-07
9.42556e-07
9.45048e-07
9.54195e-07
9.46183e-07
9.43156e-07
9.41199e-07
9.40015e-07
9.39343e-07
9.39052e-07
9.39092e-07
9.39469e-07
9.4025e-07
9.41593e-07
9.43799e-07
9.49334e-07
9.45584e-07
9.42658e-07
9.4081e-07
9.39691e-07
9.39052e-07
9.38775e-07
9.38813e-07
9.39174e-07
9.39917e-07
9.41188e-07
9.43282e-07
9.47885e-07
9.45634e-07
9.42721e-07
9.40861e-07
9.39734e-07
9.39092e-07
9.38813e-07
9.38852e-07
9.39215e-07
9.39963e-07
9.41245e-07
9.43356e-07
9.48169e-07
9.46423e-07
9.43364e-07
9.41362e-07
9.40153e-07
9.39469e-07
9.39174e-07
9.39215e-07
9.396e-07
9.40399e-07
9.41777e-07
9.44042e-07
9.49607e-07
9.55642e-07
9.4474e-07
9.42427e-07
9.4103e-07
9.4025e-07
9.39917e-07
9.39963e-07
9.40399e-07
9.41313e-07
9.42907e-07
9.45485e-07
9.54016e-07
9.46924e-07
9.44281e-07
9.42556e-07
9.41593e-07
9.41188e-07
9.41245e-07
9.41776e-07
9.42907e-07
9.44862e-07
9.50264e-07
9.47046e-07
9.45048e-07
9.43799e-07
9.43282e-07
9.43356e-07
9.44042e-07
9.45485e-07
9.50264e-07
9.54195e-07
9.49334e-07
9.47885e-07
9.48169e-07
9.49607e-07
9.54015e-07
9.32718e-07
9.32219e-07
9.32178e-07
9.32227e-07
9.3279e-07
9.3263e-07
9.32729e-07
9.3234e-07
9.32048e-07
9.31087e-07
9.31071e-07
9.31087e-07
9.3221e-07
9.32411e-07
9.32803e-07
9.3234e-07
9.32021e-07
9.31114e-07
9.31078e-07
9.31108e-07
9.31079e-07
9.31114e-07
9.32195e-07
9.32403e-07
9.32795e-07
9.32718e-07
9.32048e-07
9.31114e-07
9.31057e-07
9.31073e-07
9.3105e-07
9.31073e-07
9.31058e-07
9.31114e-07
9.32202e-07
9.32445e-07
9.32795e-07
9.32219e-07
9.31087e-07
9.31078e-07
9.31074e-07
9.31032e-07
9.31036e-07
9.31032e-07
9.31074e-07
9.31078e-07
9.31087e-07
9.32615e-07
9.32988e-07
9.32178e-07
9.31071e-07
9.31108e-07
9.3105e-07
9.31036e-07
9.31022e-07
9.31036e-07
9.3105e-07
9.31108e-07
9.31071e-07
9.32636e-07
9.32942e-07
9.32227e-07
9.31087e-07
9.31079e-07
9.31074e-07
9.31032e-07
9.31036e-07
9.31032e-07
9.31073e-07
9.31078e-07
9.31087e-07
9.32623e-07
9.32957e-07
9.3279e-07
9.3221e-07
9.31114e-07
9.31058e-07
9.31074e-07
9.3105e-07
9.31074e-07
9.31057e-07
9.31114e-07
9.32415e-07
9.3252e-07
9.32932e-07
9.3263e-07
9.32411e-07
9.32195e-07
9.31114e-07
9.31078e-07
9.31108e-07
9.31079e-07
9.31114e-07
9.32382e-07
9.32484e-07
9.32472e-07
9.32803e-07
9.32403e-07
9.32202e-07
9.31087e-07
9.31071e-07
9.31087e-07
9.32415e-07
9.32485e-07
9.32497e-07
9.32889e-07
9.32795e-07
9.32445e-07
9.32615e-07
9.32636e-07
9.32623e-07
9.3252e-07
9.32472e-07
9.32889e-07
9.32795e-07
9.32988e-07
9.32942e-07
9.32957e-07
9.32932e-07
9.24773e-07
9.24185e-07
9.24138e-07
9.24181e-07
9.2481e-07
9.24804e-07
9.24773e-07
9.24266e-07
9.23923e-07
9.23013e-07
9.23012e-07
9.23013e-07
9.24081e-07
9.2431e-07
9.24806e-07
9.24266e-07
9.23896e-07
9.23046e-07
9.23055e-07
9.23082e-07
9.23056e-07
9.23046e-07
9.24075e-07
9.2431e-07
9.24808e-07
9.24774e-07
9.23923e-07
9.23046e-07
9.23067e-07
9.23103e-07
9.23098e-07
9.23103e-07
9.23067e-07
9.23046e-07
9.2409e-07
9.2438e-07
9.24811e-07
9.24185e-07
9.23013e-07
9.23056e-07
9.23103e-07
9.23108e-07
9.23127e-07
9.23108e-07
9.23103e-07
9.23056e-07
9.23013e-07
9.24471e-07
9.24976e-07
9.24138e-07
9.23012e-07
9.23082e-07
9.23098e-07
9.23127e-07
9.23126e-07
9.23127e-07
9.23098e-07
9.23082e-07
9.23012e-07
9.24481e-07
9.25007e-07
9.24181e-07
9.23013e-07
9.23056e-07
9.23103e-07
9.23108e-07
9.23127e-07
9.23108e-07
9.23103e-07
9.23056e-07
9.23013e-07
9.24476e-07
9.25006e-07
9.2481e-07
9.24081e-07
9.23046e-07
9.23067e-07
9.23104e-07
9.23098e-07
9.23104e-07
9.23067e-07
9.23046e-07
9.24311e-07
9.24442e-07
9.24958e-07
9.24804e-07
9.2431e-07
9.24075e-07
9.23046e-07
9.23056e-07
9.23082e-07
9.23056e-07
9.23046e-07
9.2429e-07
9.24382e-07
9.24453e-07
9.24807e-07
9.2431e-07
9.2409e-07
9.23013e-07
9.23012e-07
9.23013e-07
9.24311e-07
9.24382e-07
9.24435e-07
9.24931e-07
9.24808e-07
9.2438e-07
9.24471e-07
9.24481e-07
9.24476e-07
9.24442e-07
9.24453e-07
9.24931e-07
9.24811e-07
9.24977e-07
9.25007e-07
9.25006e-07
9.24958e-07
9.1686e-07
9.16262e-07
9.16209e-07
9.16254e-07
9.16894e-07
9.16892e-07
9.16862e-07
9.1634e-07
9.1598e-07
9.15053e-07
9.15055e-07
9.15053e-07
9.16132e-07
9.16375e-07
9.16893e-07
9.1634e-07
9.15946e-07
9.15072e-07
9.15086e-07
9.15099e-07
9.15086e-07
9.15072e-07
9.16117e-07
9.16373e-07
9.16896e-07
9.1686e-07
9.1598e-07
9.15072e-07
9.15095e-07
9.1512e-07
9.15121e-07
9.1512e-07
9.15095e-07
9.15072e-07
9.16137e-07
9.16455e-07
9.16898e-07
9.16262e-07
9.15053e-07
9.15087e-07
9.15121e-07
9.15134e-07
9.15147e-07
9.15134e-07
9.15121e-07
9.15087e-07
9.15053e-07
9.16538e-07
9.17063e-07
9.16209e-07
9.15055e-07
9.15099e-07
9.15121e-07
9.15147e-07
9.15149e-07
9.15147e-07
9.15121e-07
9.15099e-07
9.15055e-07
9.16541e-07
9.17091e-07
9.16254e-07
9.15053e-07
9.15087e-07
9.1512e-07
9.15134e-07
9.15147e-07
9.15134e-07
9.1512e-07
9.15087e-07
9.15053e-07
9.16538e-07
9.1709e-07
9.16894e-07
9.16132e-07
9.15072e-07
9.15095e-07
9.15121e-07
9.15121e-07
9.15121e-07
9.15095e-07
9.15072e-07
9.16358e-07
9.16514e-07
9.17044e-07
9.16892e-07
9.16375e-07
9.16117e-07
9.15072e-07
9.15087e-07
9.15099e-07
9.15087e-07
9.15072e-07
9.16332e-07
9.16441e-07
9.16536e-07
9.16893e-07
9.16373e-07
9.16137e-07
9.15053e-07
9.15055e-07
9.15053e-07
9.16358e-07
9.16441e-07
9.16513e-07
9.17021e-07
9.16896e-07
9.16455e-07
9.16538e-07
9.16541e-07
9.16538e-07
9.16514e-07
9.16536e-07
9.17021e-07
9.16898e-07
9.17063e-07
9.17091e-07
9.1709e-07
9.17044e-07
9.08947e-07
9.08345e-07
9.08291e-07
9.08337e-07
9.0898e-07
9.0898e-07
9.08949e-07
9.08423e-07
9.08056e-07
9.07121e-07
9.07123e-07
9.07121e-07
9.08207e-07
9.08455e-07
9.08981e-07
9.08423e-07
9.08019e-07
9.07131e-07
9.07141e-07
9.07147e-07
9.07141e-07
9.07131e-07
9.08187e-07
9.08453e-07
9.08984e-07
9.08947e-07
9.08056e-07
9.07131e-07
9.07146e-07
9.07161e-07
9.07163e-07
9.07161e-07
9.07146e-07
9.0713e-07
9.08211e-07
9.08539e-07
9.08986e-07
9.08345e-07
9.07121e-07
9.07141e-07
9.07161e-07
9.07173e-07
9.0718e-07
9.07173e-07
9.07161e-07
9.07141e-07
9.07121e-07
9.0862e-07
9.0915e-07
9.08291e-07
9.07123e-07
9.07147e-07
9.07163e-07
9.0718e-07
9.07182e-07
9.0718e-07
9.07163e-07
9.07147e-07
9.07123e-07
9.0862e-07
9.09177e-07
9.08337e-07
9.07121e-07
9.07141e-07
9.07161e-07
9.07173e-07
9.0718e-07
9.07173e-07
9.07161e-07
9.07141e-07
9.07121e-07
9.08618e-07
9.09176e-07
9.0898e-07
9.08207e-07
9.0713e-07
9.07146e-07
9.07161e-07
9.07163e-07
9.07161e-07
9.07146e-07
9.07131e-07
9.08432e-07
9.08597e-07
9.0913e-07
9.0898e-07
9.08455e-07
9.08187e-07
9.0713e-07
9.07141e-07
9.07147e-07
9.07141e-07
9.07131e-07
9.08403e-07
9.08519e-07
9.08622e-07
9.08981e-07
9.08453e-07
9.08211e-07
9.07121e-07
9.07123e-07
9.07121e-07
9.08432e-07
9.08519e-07
9.08598e-07
9.09109e-07
9.08984e-07
9.08539e-07
9.0862e-07
9.0862e-07
9.08618e-07
9.08597e-07
9.08622e-07
9.09109e-07
9.08986e-07
9.0915e-07
9.09177e-07
9.09176e-07
9.0913e-07
9.01032e-07
9.00429e-07
9.00374e-07
9.0042e-07
9.01065e-07
9.01065e-07
9.01035e-07
9.00507e-07
9.00137e-07
8.99198e-07
8.99199e-07
8.99198e-07
9.00288e-07
9.00538e-07
9.01066e-07
9.00507e-07
9.00099e-07
8.99203e-07
8.9921e-07
8.99212e-07
8.9921e-07
8.99203e-07
9.00266e-07
9.00535e-07
9.01069e-07
9.01032e-07
9.00137e-07
8.99203e-07
8.99212e-07
8.9922e-07
8.99222e-07
8.9922e-07
8.99212e-07
8.99203e-07
9.00291e-07
9.00623e-07
9.01071e-07
9.00429e-07
8.99198e-07
8.9921e-07
8.99221e-07
8.99229e-07
8.99232e-07
8.99229e-07
8.99221e-07
8.9921e-07
8.99198e-07
9.00703e-07
9.01235e-07
9.00374e-07
8.99199e-07
8.99212e-07
8.99222e-07
8.99232e-07
8.99234e-07
8.99232e-07
8.99222e-07
8.99212e-07
8.99199e-07
9.00702e-07
9.01262e-07
9.0042e-07
8.99198e-07
8.9921e-07
8.9922e-07
8.99229e-07
8.99232e-07
8.99229e-07
8.9922e-07
8.9921e-07
8.99198e-07
9.007e-07
9.01261e-07
9.01065e-07
9.00288e-07
8.99203e-07
8.99212e-07
8.99221e-07
8.99222e-07
8.99221e-07
8.99212e-07
8.99203e-07
9.00512e-07
9.00681e-07
9.01215e-07
9.01065e-07
9.00538e-07
9.00266e-07
8.99203e-07
8.9921e-07
8.99212e-07
8.9921e-07
8.99203e-07
9.00481e-07
9.00602e-07
9.00707e-07
9.01066e-07
9.00535e-07
9.00291e-07
8.99198e-07
8.99199e-07
8.99198e-07
9.00512e-07
9.00602e-07
9.00683e-07
9.01194e-07
9.01069e-07
9.00623e-07
9.00703e-07
9.00702e-07
9.007e-07
9.00681e-07
9.00707e-07
9.01195e-07
9.01071e-07
9.01235e-07
9.01262e-07
9.01261e-07
9.01215e-07
8.93116e-07
8.92512e-07
8.92458e-07
8.92503e-07
8.93149e-07
8.93149e-07
8.93119e-07
8.92591e-07
8.9222e-07
8.91278e-07
8.91279e-07
8.91278e-07
8.92371e-07
8.92622e-07
8.93151e-07
8.92591e-07
8.92181e-07
8.91281e-07
8.91285e-07
8.91286e-07
8.91285e-07
8.91281e-07
8.92348e-07
8.92619e-07
8.93154e-07
8.93116e-07
8.9222e-07
8.91281e-07
8.91286e-07
8.91291e-07
8.91292e-07
8.9129e-07
8.91286e-07
8.91281e-07
8.92374e-07
8.92707e-07
8.93155e-07
8.92512e-07
8.91278e-07
8.91285e-07
8.91291e-07
8.91296e-07
8.91298e-07
8.91296e-07
8.91291e-07
8.91285e-07
8.91278e-07
8.92786e-07
8.9332e-07
8.92458e-07
8.91279e-07
8.91286e-07
8.91292e-07
8.91298e-07
8.91299e-07
8.91298e-07
8.91292e-07
8.91286e-07
8.91279e-07
8.92785e-07
8.93346e-07
8.92503e-07
8.91278e-07
8.91285e-07
8.91291e-07
8.91296e-07
8.91298e-07
8.91296e-07
8.91291e-07
8.91285e-07
8.91278e-07
8.92783e-07
8.93345e-07
8.93149e-07
8.92371e-07
8.91281e-07
8.91286e-07
8.91291e-07
8.91292e-07
8.91291e-07
8.91286e-07
8.91281e-07
8.92595e-07
8.92765e-07
8.93299e-07
8.93149e-07
8.92622e-07
8.92348e-07
8.91281e-07
8.91285e-07
8.91286e-07
8.91286e-07
8.91281e-07
8.92562e-07
8.92685e-07
8.92791e-07
8.93151e-07
8.92619e-07
8.92374e-07
8.91278e-07
8.91279e-07
8.91278e-07
8.92595e-07
8.92685e-07
8.92767e-07
8.93279e-07
8.93154e-07
8.92707e-07
8.92786e-07
8.92785e-07
8.92783e-07
8.92765e-07
8.92792e-07
8.93279e-07
8.93155e-07
8.9332e-07
8.93346e-07
8.93345e-07
8.93299e-07
8.852e-07
8.84596e-07
8.84541e-07
8.84587e-07
8.85233e-07
8.85233e-07
8.85203e-07
8.84674e-07
8.84302e-07
8.8336e-07
8.83361e-07
8.8336e-07
8.84454e-07
8.84705e-07
8.85235e-07
8.84674e-07
8.84263e-07
8.83361e-07
8.83365e-07
8.83365e-07
8.83365e-07
8.83361e-07
8.84431e-07
8.84702e-07
8.85238e-07
8.852e-07
8.84302e-07
8.83361e-07
8.83365e-07
8.83367e-07
8.83368e-07
8.83367e-07
8.83365e-07
8.83361e-07
8.84457e-07
8.84791e-07
8.85239e-07
8.84596e-07
8.8336e-07
8.83365e-07
8.83367e-07
8.8337e-07
8.83371e-07
8.8337e-07
8.83367e-07
8.83365e-07
8.8336e-07
8.8487e-07
8.85403e-07
8.84541e-07
8.83361e-07
8.83364e-07
8.83368e-07
8.83371e-07
8.83372e-07
8.83371e-07
8.83368e-07
8.83364e-07
8.83361e-07
8.84868e-07
8.85429e-07
8.84587e-07
8.8336e-07
8.83365e-07
8.83367e-07
8.8337e-07
8.83371e-07
8.8337e-07
8.83367e-07
8.83365e-07
8.8336e-07
8.84867e-07
8.85429e-07
8.85233e-07
8.84454e-07
8.83361e-07
8.83365e-07
8.83367e-07
8.83368e-07
8.83367e-07
8.83365e-07
8.83361e-07
8.84677e-07
8.84849e-07
8.85383e-07
8.85233e-07
8.84705e-07
8.84431e-07
8.83361e-07
8.83365e-07
8.83365e-07
8.83365e-07
8.83361e-07
8.84645e-07
8.84768e-07
8.84875e-07
8.85235e-07
8.84702e-07
8.84457e-07
8.8336e-07
8.83361e-07
8.8336e-07
8.84677e-07
8.84768e-07
8.84851e-07
8.85363e-07
8.85238e-07
8.84791e-07
8.8487e-07
8.84868e-07
8.84866e-07
8.84848e-07
8.84875e-07
8.85363e-07
8.85239e-07
8.85403e-07
8.8543e-07
8.85429e-07
8.85383e-07
8.77283e-07
8.76679e-07
8.76624e-07
8.7667e-07
8.77316e-07
8.77317e-07
8.77286e-07
8.76757e-07
8.76385e-07
8.75442e-07
8.75443e-07
8.75442e-07
8.76537e-07
8.76789e-07
8.77318e-07
8.76757e-07
8.76346e-07
8.75443e-07
8.75446e-07
8.75445e-07
8.75446e-07
8.75443e-07
8.76514e-07
8.76785e-07
8.77321e-07
8.77283e-07
8.76385e-07
8.75443e-07
8.75446e-07
8.75446e-07
8.75447e-07
8.75446e-07
8.75446e-07
8.75443e-07
8.7654e-07
8.76874e-07
8.77322e-07
8.76679e-07
8.75442e-07
8.75446e-07
8.75446e-07
8.75449e-07
8.75449e-07
8.75449e-07
8.75446e-07
8.75446e-07
8.75442e-07
8.76953e-07
8.77487e-07
8.76624e-07
8.75443e-07
8.75445e-07
8.75447e-07
8.75449e-07
8.75449e-07
8.75449e-07
8.75447e-07
8.75445e-07
8.75443e-07
8.76951e-07
8.77513e-07
8.7667e-07
8.75442e-07
8.75446e-07
8.75446e-07
8.75449e-07
8.75449e-07
8.75449e-07
8.75446e-07
8.75446e-07
8.75442e-07
8.7695e-07
8.77512e-07
8.77316e-07
8.76537e-07
8.75443e-07
8.75446e-07
8.75446e-07
8.75447e-07
8.75446e-07
8.75446e-07
8.75443e-07
8.76761e-07
8.76932e-07
8.77466e-07
8.77317e-07
8.76789e-07
8.76514e-07
8.75443e-07
8.75446e-07
8.75445e-07
8.75446e-07
8.75443e-07
8.76728e-07
8.76852e-07
8.76959e-07
8.77318e-07
8.76786e-07
8.7654e-07
8.75442e-07
8.75443e-07
8.75442e-07
8.76761e-07
8.76852e-07
8.76935e-07
8.77447e-07
8.77321e-07
8.76874e-07
8.76953e-07
8.76951e-07
8.7695e-07
8.76932e-07
8.76959e-07
8.77447e-07
8.77322e-07
8.77487e-07
8.77513e-07
8.77512e-07
8.77466e-07
8.69366e-07
8.68762e-07
8.68707e-07
8.68753e-07
8.69399e-07
8.694e-07
8.6937e-07
8.6884e-07
8.68468e-07
8.67525e-07
8.67526e-07
8.67525e-07
8.6862e-07
8.68872e-07
8.69402e-07
8.6884e-07
8.68429e-07
8.67526e-07
8.67528e-07
8.67527e-07
8.67528e-07
8.67526e-07
8.68597e-07
8.68869e-07
8.69405e-07
8.69366e-07
8.68468e-07
8.67526e-07
8.67528e-07
8.67528e-07
8.67528e-07
8.67528e-07
8.67528e-07
8.67526e-07
8.68623e-07
8.68957e-07
8.69406e-07
8.68762e-07
8.67525e-07
8.67528e-07
8.67528e-07
8.67529e-07
8.67529e-07
8.67529e-07
8.67528e-07
8.67528e-07
8.67525e-07
8.69036e-07
8.6957e-07
8.68707e-07
8.67526e-07
8.67527e-07
8.67528e-07
8.67529e-07
8.6753e-07
8.67529e-07
8.67528e-07
8.67527e-07
8.67526e-07
8.69035e-07
8.69596e-07
8.68753e-07
8.67525e-07
8.67528e-07
8.67528e-07
8.67529e-07
8.67529e-07
8.67529e-07
8.67528e-07
8.67528e-07
8.67525e-07
8.69033e-07
8.69595e-07
8.69399e-07
8.6862e-07
8.67526e-07
8.67528e-07
8.67528e-07
8.67528e-07
8.67528e-07
8.67528e-07
8.67526e-07
8.68843e-07
8.69015e-07
8.69549e-07
8.694e-07
8.68872e-07
8.68597e-07
8.67526e-07
8.67528e-07
8.67527e-07
8.67528e-07
8.67526e-07
8.68811e-07
8.68935e-07
8.69042e-07
8.69402e-07
8.68869e-07
8.68623e-07
8.67525e-07
8.67526e-07
8.67525e-07
8.68843e-07
8.68935e-07
8.69018e-07
8.6953e-07
8.69405e-07
8.68957e-07
8.69036e-07
8.69035e-07
8.69033e-07
8.69015e-07
8.69042e-07
8.6953e-07
8.69406e-07
8.6957e-07
8.69596e-07
8.69595e-07
8.6955e-07
8.6145e-07
8.60845e-07
8.6079e-07
8.60836e-07
8.61483e-07
8.61483e-07
8.61453e-07
8.60924e-07
8.60552e-07
8.59608e-07
8.59609e-07
8.59608e-07
8.60703e-07
8.60955e-07
8.61485e-07
8.60924e-07
8.60512e-07
8.59609e-07
8.59611e-07
8.5961e-07
8.59611e-07
8.59609e-07
8.6068e-07
8.60952e-07
8.61488e-07
8.6145e-07
8.60552e-07
8.59609e-07
8.5961e-07
8.59609e-07
8.5961e-07
8.5961e-07
8.5961e-07
8.59609e-07
8.60706e-07
8.6104e-07
8.61489e-07
8.60845e-07
8.59608e-07
8.59611e-07
8.5961e-07
8.59612e-07
8.5961e-07
8.59612e-07
8.5961e-07
8.59611e-07
8.59608e-07
8.61119e-07
8.61653e-07
8.6079e-07
8.59609e-07
8.5961e-07
8.5961e-07
8.5961e-07
8.59611e-07
8.5961e-07
8.5961e-07
8.5961e-07
8.59609e-07
8.61118e-07
8.61679e-07
8.60836e-07
8.59608e-07
8.59611e-07
8.59609e-07
8.59612e-07
8.5961e-07
8.59612e-07
8.59609e-07
8.59611e-07
8.59608e-07
8.61116e-07
8.61678e-07
8.61483e-07
8.60703e-07
8.59609e-07
8.5961e-07
8.59609e-07
8.5961e-07
8.59609e-07
8.5961e-07
8.59609e-07
8.60927e-07
8.61098e-07
8.61633e-07
8.61483e-07
8.60955e-07
8.6068e-07
8.59609e-07
8.59611e-07
8.5961e-07
8.59611e-07
8.59608e-07
8.60893e-07
8.61018e-07
8.61125e-07
8.61485e-07
8.60952e-07
8.60706e-07
8.59608e-07
8.59609e-07
8.59608e-07
8.60927e-07
8.61018e-07
8.61101e-07
8.61613e-07
8.61488e-07
8.6104e-07
8.61119e-07
8.61117e-07
8.61116e-07
8.61098e-07
8.61125e-07
8.61613e-07
8.61489e-07
8.61653e-07
8.61679e-07
8.61678e-07
8.61633e-07
8.53533e-07
8.52929e-07
8.52874e-07
8.5292e-07
8.53566e-07
8.53567e-07
8.53536e-07
8.53007e-07
8.52635e-07
8.51691e-07
8.51692e-07
8.51691e-07
8.52786e-07
8.53038e-07
8.53568e-07
8.53007e-07
8.52595e-07
8.51692e-07
8.51694e-07
8.51692e-07
8.51694e-07
8.51692e-07
8.52763e-07
8.53035e-07
8.53571e-07
8.53533e-07
8.52635e-07
8.51692e-07
8.51693e-07
8.51692e-07
8.51693e-07
8.51692e-07
8.51693e-07
8.51692e-07
8.52789e-07
8.53124e-07
8.53572e-07
8.52929e-07
8.51691e-07
8.51694e-07
8.51692e-07
8.51694e-07
8.51693e-07
8.51694e-07
8.51692e-07
8.51694e-07
8.51691e-07
8.53203e-07
8.53737e-07
8.52874e-07
8.51692e-07
8.51692e-07
8.51693e-07
8.51693e-07
8.51693e-07
8.51692e-07
8.51693e-07
8.51692e-07
8.51692e-07
8.53201e-07
8.53763e-07
8.5292e-07
8.51691e-07
8.51694e-07
8.51692e-07
8.51694e-07
8.51693e-07
8.51694e-07
8.51692e-07
8.51694e-07
8.51691e-07
8.53199e-07
8.53762e-07
8.53566e-07
8.52786e-07
8.51692e-07
8.51693e-07
8.51692e-07
8.51693e-07
8.51692e-07
8.51693e-07
8.51692e-07
8.5301e-07
8.53181e-07
8.53716e-07
8.53567e-07
8.53038e-07
8.52763e-07
8.51692e-07
8.51694e-07
8.51692e-07
8.51694e-07
8.51692e-07
8.52977e-07
8.53101e-07
8.53209e-07
8.53568e-07
8.53035e-07
8.52789e-07
8.51691e-07
8.51692e-07
8.51691e-07
8.5301e-07
8.53101e-07
8.53184e-07
8.53697e-07
8.53571e-07
8.53124e-07
8.53203e-07
8.53201e-07
8.53199e-07
8.53181e-07
8.53208e-07
8.53696e-07
8.53572e-07
8.53736e-07
8.53763e-07
8.53762e-07
8.53716e-07
8.45616e-07
8.45012e-07
8.44957e-07
8.45003e-07
8.45649e-07
8.4565e-07
8.45619e-07
8.4509e-07
8.44718e-07
8.43774e-07
8.43775e-07
8.43774e-07
8.44869e-07
8.45121e-07
8.45652e-07
8.4509e-07
8.44678e-07
8.43775e-07
8.43777e-07
8.43776e-07
8.43777e-07
8.43775e-07
8.44846e-07
8.45118e-07
8.45654e-07
8.45616e-07
8.44718e-07
8.43775e-07
8.43776e-07
8.43775e-07
8.43776e-07
8.43775e-07
8.43776e-07
8.43775e-07
8.44872e-07
8.45207e-07
8.45655e-07
8.45012e-07
8.43774e-07
8.43777e-07
8.43775e-07
8.43777e-07
8.43775e-07
8.43777e-07
8.43775e-07
8.43777e-07
8.43774e-07
8.45286e-07
8.4582e-07
8.44957e-07
8.43775e-07
8.43776e-07
8.43776e-07
8.43775e-07
8.43776e-07
8.43775e-07
8.43776e-07
8.43776e-07
8.43775e-07
8.45284e-07
8.45846e-07
8.45003e-07
8.43774e-07
8.43777e-07
8.43775e-07
8.43777e-07
8.43775e-07
8.43777e-07
8.43775e-07
8.43777e-07
8.43774e-07
8.45282e-07
8.45845e-07
8.45649e-07
8.44869e-07
8.43775e-07
8.43776e-07
8.43775e-07
8.43776e-07
8.43775e-07
8.43776e-07
8.43775e-07
8.45093e-07
8.45265e-07
8.45799e-07
8.4565e-07
8.45121e-07
8.44846e-07
8.43775e-07
8.43777e-07
8.43775e-07
8.43777e-07
8.43775e-07
8.4506e-07
8.45184e-07
8.45292e-07
8.45651e-07
8.45118e-07
8.44872e-07
8.43774e-07
8.43775e-07
8.43774e-07
8.45093e-07
8.45184e-07
8.45267e-07
8.4578e-07
8.45654e-07
8.45207e-07
8.45286e-07
8.45284e-07
8.45282e-07
8.45265e-07
8.45292e-07
8.4578e-07
8.45655e-07
8.4582e-07
8.45846e-07
8.45845e-07
8.45799e-07
8.37699e-07
8.37095e-07
8.3704e-07
8.37086e-07
8.37732e-07
8.37733e-07
8.37703e-07
8.37173e-07
8.36801e-07
8.35857e-07
8.35858e-07
8.35857e-07
8.36953e-07
8.37205e-07
8.37735e-07
8.37173e-07
8.36761e-07
8.35858e-07
8.3586e-07
8.35858e-07
8.3586e-07
8.35858e-07
8.36929e-07
8.37202e-07
8.37738e-07
8.37699e-07
8.36801e-07
8.35858e-07
8.35859e-07
8.35858e-07
8.35859e-07
8.35858e-07
8.35859e-07
8.35858e-07
8.36956e-07
8.3729e-07
8.37739e-07
8.37095e-07
8.35857e-07
8.3586e-07
8.35858e-07
8.3586e-07
8.35859e-07
8.3586e-07
8.35858e-07
8.3586e-07
8.35858e-07
8.37369e-07
8.37903e-07
8.3704e-07
8.35858e-07
8.35858e-07
8.35859e-07
8.35858e-07
8.35859e-07
8.35859e-07
8.35859e-07
8.35859e-07
8.35858e-07
8.37367e-07
8.37929e-07
8.37086e-07
8.35857e-07
8.3586e-07
8.35858e-07
8.3586e-07
8.35858e-07
8.3586e-07
8.35858e-07
8.3586e-07
8.35858e-07
8.37366e-07
8.37928e-07
8.37732e-07
8.36953e-07
8.35858e-07
8.35859e-07
8.35858e-07
8.35859e-07
8.35858e-07
8.35859e-07
8.35858e-07
8.37176e-07
8.37348e-07
8.37883e-07
8.37733e-07
8.37205e-07
8.36929e-07
8.35858e-07
8.3586e-07
8.35858e-07
8.3586e-07
8.35858e-07
8.37143e-07
8.37268e-07
8.37375e-07
8.37735e-07
8.37202e-07
8.36956e-07
8.35857e-07
8.35858e-07
8.35857e-07
8.37176e-07
8.37268e-07
8.37351e-07
8.37863e-07
8.37738e-07
8.3729e-07
8.37369e-07
8.37367e-07
8.37365e-07
8.37348e-07
8.37375e-07
8.37863e-07
8.37738e-07
8.37903e-07
8.37929e-07
8.37928e-07
8.37883e-07
8.29782e-07
8.29178e-07
8.29123e-07
8.29169e-07
8.29815e-07
8.29816e-07
8.29786e-07
8.29257e-07
8.28884e-07
8.27941e-07
8.27942e-07
8.27941e-07
8.29036e-07
8.29288e-07
8.29818e-07
8.29257e-07
8.28845e-07
8.27941e-07
8.27943e-07
8.27942e-07
8.27943e-07
8.27941e-07
8.29013e-07
8.29285e-07
8.29821e-07
8.29782e-07
8.28884e-07
8.27941e-07
8.27942e-07
8.27941e-07
8.27942e-07
8.27941e-07
8.27942e-07
8.27941e-07
8.29039e-07
8.29373e-07
8.29822e-07
8.29178e-07
8.27941e-07
8.27943e-07
8.27941e-07
8.27943e-07
8.27941e-07
8.27943e-07
8.27941e-07
8.27943e-07
8.27941e-07
8.29452e-07
8.29986e-07
8.29123e-07
8.27942e-07
8.27942e-07
8.27942e-07
8.27942e-07
8.27942e-07
8.27942e-07
8.27942e-07
8.27942e-07
8.27942e-07
8.2945e-07
8.30012e-07
8.29169e-07
8.27941e-07
8.27943e-07
8.27941e-07
8.27943e-07
8.27942e-07
8.27943e-07
8.27941e-07
8.27943e-07
8.27941e-07
8.29449e-07
8.30011e-07
8.29815e-07
8.29036e-07
8.27941e-07
8.27942e-07
8.27941e-07
8.27942e-07
8.27941e-07
8.27942e-07
8.27941e-07
8.29259e-07
8.29431e-07
8.29966e-07
8.29816e-07
8.29288e-07
8.29013e-07
8.27941e-07
8.27943e-07
8.27942e-07
8.27943e-07
8.27941e-07
8.29226e-07
8.29351e-07
8.29458e-07
8.29818e-07
8.29285e-07
8.29039e-07
8.27941e-07
8.27942e-07
8.27941e-07
8.29259e-07
8.29351e-07
8.29434e-07
8.29946e-07
8.29821e-07
8.29373e-07
8.29452e-07
8.2945e-07
8.29449e-07
8.29431e-07
8.29458e-07
8.29946e-07
8.29822e-07
8.29986e-07
8.30012e-07
8.30011e-07
8.29966e-07
8.21866e-07
8.21261e-07
8.21206e-07
8.21252e-07
8.21899e-07
8.21899e-07
8.21869e-07
8.2134e-07
8.20968e-07
8.20024e-07
8.20025e-07
8.20024e-07
8.21119e-07
8.21371e-07
8.21901e-07
8.2134e-07
8.20928e-07
8.20024e-07
8.20026e-07
8.20025e-07
8.20026e-07
8.20024e-07
8.21096e-07
8.21368e-07
8.21904e-07
8.21866e-07
8.20968e-07
8.20024e-07
8.20025e-07
8.20024e-07
8.20025e-07
8.20024e-07
8.20025e-07
8.20024e-07
8.21122e-07
8.21457e-07
8.21905e-07
8.21261e-07
8.20024e-07
8.20026e-07
8.20024e-07
8.20026e-07
8.20025e-07
8.20026e-07
8.20024e-07
8.20026e-07
8.20024e-07
8.21535e-07
8.22069e-07
8.21206e-07
8.20025e-07
8.20025e-07
8.20025e-07
8.20025e-07
8.20025e-07
8.20025e-07
8.20025e-07
8.20025e-07
8.20025e-07
8.21534e-07
8.22095e-07
8.21252e-07
8.20024e-07
8.20026e-07
8.20024e-07
8.20026e-07
8.20025e-07
8.20026e-07
8.20024e-07
8.20026e-07
8.20024e-07
8.21532e-07
8.22095e-07
8.21899e-07
8.21119e-07
8.20024e-07
8.20025e-07
8.20024e-07
8.20025e-07
8.20024e-07
8.20025e-07
8.20024e-07
8.21343e-07
8.21514e-07
8.22049e-07
8.21899e-07
8.21371e-07
8.21096e-07
8.20024e-07
8.20026e-07
8.20025e-07
8.20026e-07
8.20024e-07
8.2131e-07
8.21434e-07
8.21541e-07
8.21901e-07
8.21368e-07
8.21122e-07
8.20024e-07
8.20025e-07
8.20024e-07
8.21343e-07
8.21434e-07
8.21517e-07
8.22029e-07
8.21904e-07
8.21457e-07
8.21535e-07
8.21534e-07
8.21532e-07
8.21514e-07
8.21541e-07
8.22029e-07
8.21905e-07
8.22069e-07
8.22095e-07
8.22095e-07
8.22049e-07
8.13949e-07
8.13345e-07
8.1329e-07
8.13336e-07
8.13982e-07
8.13983e-07
8.13952e-07
8.13423e-07
8.13051e-07
8.12107e-07
8.12108e-07
8.12107e-07
8.13202e-07
8.13454e-07
8.13984e-07
8.13423e-07
8.13011e-07
8.12107e-07
8.12109e-07
8.12108e-07
8.12109e-07
8.12107e-07
8.13179e-07
8.13451e-07
8.13987e-07
8.13949e-07
8.13051e-07
8.12107e-07
8.12108e-07
8.12108e-07
8.12108e-07
8.12108e-07
8.12108e-07
8.12107e-07
8.13205e-07
8.1354e-07
8.13988e-07
8.13345e-07
8.12107e-07
8.12109e-07
8.12108e-07
8.12109e-07
8.12108e-07
8.12109e-07
8.12108e-07
8.12109e-07
8.12107e-07
8.13619e-07
8.14153e-07
8.13289e-07
8.12108e-07
8.12108e-07
8.12108e-07
8.12108e-07
8.12108e-07
8.12108e-07
8.12108e-07
8.12108e-07
8.12108e-07
8.13617e-07
8.14179e-07
8.13336e-07
8.12107e-07
8.12109e-07
8.12108e-07
8.12109e-07
8.12108e-07
8.12109e-07
8.12108e-07
8.12109e-07
8.12107e-07
8.13615e-07
8.14178e-07
8.13982e-07
8.13202e-07
8.12107e-07
8.12108e-07
8.12108e-07
8.12108e-07
8.12108e-07
8.12108e-07
8.12107e-07
8.13426e-07
8.13597e-07
8.14132e-07
8.13983e-07
8.13454e-07
8.13179e-07
8.12107e-07
8.12109e-07
8.12108e-07
8.12109e-07
8.12107e-07
8.13393e-07
8.13517e-07
8.13625e-07
8.13984e-07
8.13451e-07
8.13205e-07
8.12107e-07
8.12108e-07
8.12107e-07
8.13426e-07
8.13517e-07
8.136e-07
8.14113e-07
8.13987e-07
8.1354e-07
8.13619e-07
8.13617e-07
8.13615e-07
8.13597e-07
8.13625e-07
8.14112e-07
8.13988e-07
8.14153e-07
8.14179e-07
8.14178e-07
8.14132e-07
8.06032e-07
8.05428e-07
8.05373e-07
8.05419e-07
8.06065e-07
8.06066e-07
8.06036e-07
8.05506e-07
8.05134e-07
8.0419e-07
8.04191e-07
8.0419e-07
8.05285e-07
8.05537e-07
8.06067e-07
8.05506e-07
8.05094e-07
8.04191e-07
8.04193e-07
8.04191e-07
8.04193e-07
8.04191e-07
8.05262e-07
8.05534e-07
8.0607e-07
8.06032e-07
8.05134e-07
8.04191e-07
8.04192e-07
8.04191e-07
8.04191e-07
8.04191e-07
8.04192e-07
8.04191e-07
8.05288e-07
8.05623e-07
8.06071e-07
8.05428e-07
8.0419e-07
8.04193e-07
8.04191e-07
8.04192e-07
8.04191e-07
8.04192e-07
8.04191e-07
8.04193e-07
8.0419e-07
8.05702e-07
8.06236e-07
8.05373e-07
8.04191e-07
8.04191e-07
8.04191e-07
8.04191e-07
8.04191e-07
8.04191e-07
8.04191e-07
8.04191e-07
8.04191e-07
8.057e-07
8.06262e-07
8.05419e-07
8.0419e-07
8.04193e-07
8.04191e-07
8.04192e-07
8.04191e-07
8.04192e-07
8.04191e-07
8.04193e-07
8.0419e-07
8.05698e-07
8.06261e-07
8.06065e-07
8.05285e-07
8.04191e-07
8.04192e-07
8.04191e-07
8.04191e-07
8.04191e-07
8.04192e-07
8.04191e-07
8.05509e-07
8.05681e-07
8.06215e-07
8.06066e-07
8.05537e-07
8.05262e-07
8.04191e-07
8.04193e-07
8.04191e-07
8.04193e-07
8.04191e-07
8.05476e-07
8.056e-07
8.05708e-07
8.06067e-07
8.05534e-07
8.05288e-07
8.0419e-07
8.04191e-07
8.0419e-07
8.05509e-07
8.056e-07
8.05684e-07
8.06196e-07
8.0607e-07
8.05623e-07
8.05702e-07
8.057e-07
8.05698e-07
8.05681e-07
8.05708e-07
8.06196e-07
8.06071e-07
8.06236e-07
8.06262e-07
8.06261e-07
8.06215e-07
7.98115e-07
7.97511e-07
7.97456e-07
7.97502e-07
7.98148e-07
7.98149e-07
7.98119e-07
7.9759e-07
7.97217e-07
7.96273e-07
7.96274e-07
7.96273e-07
7.97369e-07
7.97621e-07
7.98151e-07
7.9759e-07
7.97178e-07
7.96274e-07
7.96276e-07
7.96274e-07
7.96276e-07
7.96274e-07
7.97345e-07
7.97617e-07
7.98153e-07
7.98115e-07
7.97217e-07
7.96274e-07
7.96275e-07
7.96274e-07
7.96275e-07
7.96274e-07
7.96275e-07
7.96274e-07
7.97371e-07
7.97706e-07
7.98154e-07
7.97511e-07
7.96273e-07
7.96276e-07
7.96274e-07
7.96276e-07
7.96274e-07
7.96276e-07
7.96274e-07
7.96276e-07
7.96273e-07
7.97785e-07
7.98319e-07
7.97456e-07
7.96274e-07
7.96274e-07
7.96275e-07
7.96274e-07
7.96275e-07
7.96274e-07
7.96275e-07
7.96274e-07
7.96274e-07
7.97783e-07
7.98345e-07
7.97502e-07
7.96273e-07
7.96276e-07
7.96274e-07
7.96276e-07
7.96274e-07
7.96276e-07
7.96274e-07
7.96276e-07
7.96273e-07
7.97781e-07
7.98344e-07
7.98148e-07
7.97369e-07
7.96274e-07
7.96275e-07
7.96274e-07
7.96275e-07
7.96274e-07
7.96275e-07
7.96274e-07
7.97592e-07
7.97764e-07
7.98299e-07
7.98149e-07
7.97621e-07
7.97345e-07
7.96274e-07
7.96276e-07
7.96274e-07
7.96276e-07
7.96274e-07
7.97559e-07
7.97684e-07
7.97791e-07
7.98151e-07
7.97617e-07
7.97371e-07
7.96273e-07
7.96274e-07
7.96273e-07
7.97592e-07
7.97684e-07
7.97767e-07
7.98279e-07
7.98153e-07
7.97706e-07
7.97785e-07
7.97783e-07
7.97781e-07
7.97764e-07
7.97791e-07
7.98279e-07
7.98154e-07
7.98319e-07
7.98345e-07
7.98344e-07
7.98298e-07
7.90198e-07
7.89594e-07
7.89539e-07
7.89585e-07
7.90231e-07
7.90232e-07
7.90202e-07
7.89673e-07
7.893e-07
7.88357e-07
7.88358e-07
7.88357e-07
7.89452e-07
7.89704e-07
7.90234e-07
7.89673e-07
7.89261e-07
7.88357e-07
7.88359e-07
7.88358e-07
7.88359e-07
7.88357e-07
7.89428e-07
7.89701e-07
7.90237e-07
7.90198e-07
7.893e-07
7.88357e-07
7.88358e-07
7.88357e-07
7.88358e-07
7.88357e-07
7.88358e-07
7.88357e-07
7.89455e-07
7.89789e-07
7.90238e-07
7.89594e-07
7.88357e-07
7.88359e-07
7.88357e-07
7.88359e-07
7.88357e-07
7.88359e-07
7.88357e-07
7.88359e-07
7.88357e-07
7.89868e-07
7.90402e-07
7.89539e-07
7.88358e-07
7.88358e-07
7.88358e-07
7.88357e-07
7.88358e-07
7.88357e-07
7.88358e-07
7.88358e-07
7.88358e-07
7.89866e-07
7.90428e-07
7.89585e-07
7.88357e-07
7.88359e-07
7.88357e-07
7.88359e-07
7.88357e-07
7.88359e-07
7.88357e-07
7.88359e-07
7.88357e-07
7.89865e-07
7.90427e-07
7.90231e-07
7.89452e-07
7.88357e-07
7.88358e-07
7.88357e-07
7.88358e-07
7.88357e-07
7.88358e-07
7.88357e-07
7.89675e-07
7.89847e-07
7.90382e-07
7.90232e-07
7.89704e-07
7.89428e-07
7.88357e-07
7.88359e-07
7.88358e-07
7.88359e-07
7.88357e-07
7.89642e-07
7.89767e-07
7.89874e-07
7.90234e-07
7.89701e-07
7.89455e-07
7.88357e-07
7.88358e-07
7.88357e-07
7.89675e-07
7.89767e-07
7.8985e-07
7.90362e-07
7.90237e-07
7.89789e-07
7.89868e-07
7.89866e-07
7.89865e-07
7.89847e-07
7.89874e-07
7.90362e-07
7.90238e-07
7.90402e-07
7.90428e-07
7.90427e-07
7.90382e-07
7.82282e-07
7.81677e-07
7.81622e-07
7.81668e-07
7.82315e-07
7.82315e-07
7.82285e-07
7.81756e-07
7.81384e-07
7.8044e-07
7.80441e-07
7.8044e-07
7.81535e-07
7.81787e-07
7.82317e-07
7.81756e-07
7.81344e-07
7.8044e-07
7.80442e-07
7.80441e-07
7.80442e-07
7.8044e-07
7.81512e-07
7.81784e-07
7.8232e-07
7.82282e-07
7.81384e-07
7.8044e-07
7.80441e-07
7.8044e-07
7.80441e-07
7.8044e-07
7.80441e-07
7.8044e-07
7.81538e-07
7.81873e-07
7.82321e-07
7.81677e-07
7.8044e-07
7.80442e-07
7.8044e-07
7.80442e-07
7.80441e-07
7.80442e-07
7.8044e-07
7.80442e-07
7.8044e-07
7.81951e-07
7.82485e-07
7.81622e-07
7.80441e-07
7.80441e-07
7.80441e-07
7.80441e-07
7.80441e-07
7.80441e-07
7.80441e-07
7.80441e-07
7.80441e-07
7.8195e-07
7.82511e-07
7.81668e-07
7.8044e-07
7.80442e-07
7.8044e-07
7.80442e-07
7.80441e-07