/*--------------------------------*- C++ -*----------------------------------*\
| =========                 |                                                 |
| \\      /  F ield         | OpenFOAM: The Open Source CFD Toolbox           |
|  \\    /   O peration     | Version:  v2012                                 |
|   \\  /    A nd           | Website:  www.openfoam.com                      |
|    \\/     M anipulation  |                                                 |
\*---------------------------------------------------------------------------*/
FoamFile
{
    version     2.0;
    format      ascii;
    class       volScalarField;
    location    "53";
    object      p;
}
// * * * * * * * * * * * * * * * * * * * * * * * * * * * * * * * * * * * * * //

dimensions      [0 2 -2 0 0 0 0];


internalField   nonuniform List<scalar> 
292667
(
1.17187e-06
1.16254e-06
1.1618e-06
1.16187e-06
1.16288e-06
1.17277e-06
1.16276e-06
1.16018e-06
1.15866e-06
1.15804e-06
1.15812e-06
1.15893e-06
1.16067e-06
1.16349e-06
1.16276e-06
1.15942e-06
1.15734e-06
1.15619e-06
1.1557e-06
1.15577e-06
1.15639e-06
1.15773e-06
1.16008e-06
1.1637e-06
1.17187e-06
1.16018e-06
1.15734e-06
1.15565e-06
1.1547e-06
1.1543e-06
1.15435e-06
1.15488e-06
1.15598e-06
1.15789e-06
1.16107e-06
1.17148e-06
1.16254e-06
1.15866e-06
1.15619e-06
1.1547e-06
1.15386e-06
1.1535e-06
1.15355e-06
1.15402e-06
1.155e-06
1.15669e-06
1.15949e-06
1.16613e-06
1.1618e-06
1.15804e-06
1.1557e-06
1.1543e-06
1.1535e-06
1.15315e-06
1.1532e-06
1.15365e-06
1.15458e-06
1.15618e-06
1.15884e-06
1.1645e-06
1.16187e-06
1.15812e-06
1.15577e-06
1.15435e-06
1.15355e-06
1.1532e-06
1.15325e-06
1.1537e-06
1.15464e-06
1.15625e-06
1.15893e-06
1.16482e-06
1.16288e-06
1.15893e-06
1.1564e-06
1.15488e-06
1.15402e-06
1.15365e-06
1.1537e-06
1.15419e-06
1.15519e-06
1.15692e-06
1.1598e-06
1.16644e-06
1.17277e-06
1.16067e-06
1.15773e-06
1.15598e-06
1.155e-06
1.15458e-06
1.15464e-06
1.15519e-06
1.15633e-06
1.15834e-06
1.16163e-06
1.17137e-06
1.16349e-06
1.16008e-06
1.15789e-06
1.15669e-06
1.15618e-06
1.15625e-06
1.15692e-06
1.15834e-06
1.16082e-06
1.16708e-06
1.1637e-06
1.16107e-06
1.15949e-06
1.15884e-06
1.15893e-06
1.1598e-06
1.16163e-06
1.16708e-06
1.17148e-06
1.16613e-06
1.1645e-06
1.16482e-06
1.16644e-06
1.17137e-06
1.14585e-06
1.14503e-06
1.145e-06
1.14504e-06
1.14583e-06
1.14572e-06
1.14589e-06
1.14525e-06
1.14487e-06
1.14353e-06
1.14351e-06
1.14353e-06
1.14504e-06
1.14529e-06
1.14592e-06
1.14525e-06
1.14487e-06
1.14357e-06
1.14352e-06
1.14357e-06
1.14352e-06
1.14357e-06
1.14502e-06
1.14527e-06
1.14589e-06
1.14585e-06
1.14487e-06
1.14357e-06
1.14351e-06
1.14354e-06
1.14353e-06
1.14354e-06
1.14351e-06
1.14357e-06
1.14501e-06
1.14529e-06
1.14595e-06
1.14503e-06
1.14353e-06
1.14352e-06
1.14354e-06
1.14351e-06
1.14351e-06
1.14351e-06
1.14354e-06
1.14352e-06
1.14353e-06
1.14544e-06
1.14609e-06
1.145e-06
1.14351e-06
1.14357e-06
1.14353e-06
1.14351e-06
1.1435e-06
1.14351e-06
1.14353e-06
1.14357e-06
1.14351e-06
1.14545e-06
1.14599e-06
1.14504e-06
1.14353e-06
1.14352e-06
1.14354e-06
1.14351e-06
1.14351e-06
1.14351e-06
1.14354e-06
1.14352e-06
1.14353e-06
1.14545e-06
1.14602e-06
1.14584e-06
1.14504e-06
1.14357e-06
1.14351e-06
1.14354e-06
1.14353e-06
1.14355e-06
1.14351e-06
1.14357e-06
1.14519e-06
1.14535e-06
1.14605e-06
1.14572e-06
1.14529e-06
1.14502e-06
1.14357e-06
1.14352e-06
1.14357e-06
1.14352e-06
1.14357e-06
1.14516e-06
1.14532e-06
1.14533e-06
1.14592e-06
1.14527e-06
1.14501e-06
1.14353e-06
1.14351e-06
1.14353e-06
1.14519e-06
1.14532e-06
1.14539e-06
1.14602e-06
1.14589e-06
1.14529e-06
1.14544e-06
1.14545e-06
1.14545e-06
1.14535e-06
1.14533e-06
1.14602e-06
1.14595e-06
1.14609e-06
1.14599e-06
1.14602e-06
1.14605e-06
1.1361e-06
1.13526e-06
1.1352e-06
1.13525e-06
1.13609e-06
1.13613e-06
1.13612e-06
1.13539e-06
1.13496e-06
1.13364e-06
1.13364e-06
1.13364e-06
1.13511e-06
1.13542e-06
1.13611e-06
1.13539e-06
1.13494e-06
1.13369e-06
1.13369e-06
1.13373e-06
1.13369e-06
1.13369e-06
1.13511e-06
1.13542e-06
1.13611e-06
1.1361e-06
1.13496e-06
1.13369e-06
1.1337e-06
1.13375e-06
1.13375e-06
1.13375e-06
1.1337e-06
1.13369e-06
1.13512e-06
1.13547e-06
1.13615e-06
1.13526e-06
1.13364e-06
1.13369e-06
1.13375e-06
1.13376e-06
1.13378e-06
1.13376e-06
1.13375e-06
1.13369e-06
1.13364e-06
1.13552e-06
1.13628e-06
1.1352e-06
1.13364e-06
1.13373e-06
1.13375e-06
1.13378e-06
1.13379e-06
1.13378e-06
1.13375e-06
1.13373e-06
1.13364e-06
1.13552e-06
1.13629e-06
1.13525e-06
1.13364e-06
1.13369e-06
1.13375e-06
1.13376e-06
1.13378e-06
1.13376e-06
1.13375e-06
1.13369e-06
1.13364e-06
1.13552e-06
1.13629e-06
1.13609e-06
1.13511e-06
1.13369e-06
1.1337e-06
1.13375e-06
1.13375e-06
1.13375e-06
1.1337e-06
1.13369e-06
1.13532e-06
1.13551e-06
1.13628e-06
1.13613e-06
1.13542e-06
1.13511e-06
1.13369e-06
1.13369e-06
1.13373e-06
1.13369e-06
1.13369e-06
1.1353e-06
1.13545e-06
1.13555e-06
1.13611e-06
1.13542e-06
1.13512e-06
1.13364e-06
1.13364e-06
1.13364e-06
1.13532e-06
1.13545e-06
1.13553e-06
1.13626e-06
1.13611e-06
1.13547e-06
1.13552e-06
1.13552e-06
1.13552e-06
1.13551e-06
1.13555e-06
1.13626e-06
1.13615e-06
1.13628e-06
1.13629e-06
1.13629e-06
1.13628e-06
1.12639e-06
1.12554e-06
1.12547e-06
1.12552e-06
1.12637e-06
1.12642e-06
1.12641e-06
1.12566e-06
1.12521e-06
1.12387e-06
1.12387e-06
1.12387e-06
1.12535e-06
1.12567e-06
1.1264e-06
1.12566e-06
1.12518e-06
1.1239e-06
1.12391e-06
1.12393e-06
1.12391e-06
1.1239e-06
1.12534e-06
1.12567e-06
1.1264e-06
1.12639e-06
1.12521e-06
1.1239e-06
1.12392e-06
1.12396e-06
1.12396e-06
1.12396e-06
1.12392e-06
1.1239e-06
1.12536e-06
1.12575e-06
1.12644e-06
1.12554e-06
1.12387e-06
1.12391e-06
1.12396e-06
1.12397e-06
1.12399e-06
1.12397e-06
1.12396e-06
1.12391e-06
1.12387e-06
1.12579e-06
1.12657e-06
1.12547e-06
1.12387e-06
1.12393e-06
1.12396e-06
1.12399e-06
1.12399e-06
1.12399e-06
1.12396e-06
1.12393e-06
1.12387e-06
1.12578e-06
1.12658e-06
1.12552e-06
1.12387e-06
1.12391e-06
1.12396e-06
1.12397e-06
1.12399e-06
1.12397e-06
1.12396e-06
1.12391e-06
1.12387e-06
1.12578e-06
1.12658e-06
1.12637e-06
1.12535e-06
1.1239e-06
1.12392e-06
1.12396e-06
1.12396e-06
1.12396e-06
1.12392e-06
1.1239e-06
1.12556e-06
1.12579e-06
1.12657e-06
1.12642e-06
1.12567e-06
1.12534e-06
1.1239e-06
1.12391e-06
1.12393e-06
1.12391e-06
1.1239e-06
1.12554e-06
1.12571e-06
1.12584e-06
1.1264e-06
1.12567e-06
1.12536e-06
1.12387e-06
1.12387e-06
1.12387e-06
1.12556e-06
1.12571e-06
1.12581e-06
1.12655e-06
1.1264e-06
1.12575e-06
1.12579e-06
1.12578e-06
1.12578e-06
1.12579e-06
1.12584e-06
1.12655e-06
1.12644e-06
1.12657e-06
1.12658e-06
1.12658e-06
1.12657e-06
1.11667e-06
1.11582e-06
1.11575e-06
1.1158e-06
1.11666e-06
1.1167e-06
1.1167e-06
1.11594e-06
1.11548e-06
1.11414e-06
1.11414e-06
1.11414e-06
1.11563e-06
1.11595e-06
1.11668e-06
1.11594e-06
1.11545e-06
1.11415e-06
1.11416e-06
1.11417e-06
1.11416e-06
1.11415e-06
1.11561e-06
1.11595e-06
1.11669e-06
1.11667e-06
1.11548e-06
1.11415e-06
1.11417e-06
1.11419e-06
1.11419e-06
1.11419e-06
1.11417e-06
1.11415e-06
1.11563e-06
1.11603e-06
1.11672e-06
1.11582e-06
1.11414e-06
1.11416e-06
1.11419e-06
1.1142e-06
1.11421e-06
1.1142e-06
1.11419e-06
1.11416e-06
1.11414e-06
1.11607e-06
1.11686e-06
1.11575e-06
1.11414e-06
1.11417e-06
1.11419e-06
1.11421e-06
1.11421e-06
1.11421e-06
1.11419e-06
1.11417e-06
1.11414e-06
1.11605e-06
1.11686e-06
1.1158e-06
1.11414e-06
1.11416e-06
1.11419e-06
1.1142e-06
1.11421e-06
1.1142e-06
1.11419e-06
1.11416e-06
1.11414e-06
1.11606e-06
1.11686e-06
1.11666e-06
1.11563e-06
1.11415e-06
1.11417e-06
1.11419e-06
1.11419e-06
1.11419e-06
1.11417e-06
1.11415e-06
1.11583e-06
1.11607e-06
1.11685e-06
1.1167e-06
1.11595e-06
1.11561e-06
1.11415e-06
1.11416e-06
1.11417e-06
1.11416e-06
1.11415e-06
1.1158e-06
1.11599e-06
1.11612e-06
1.11668e-06
1.11595e-06
1.11563e-06
1.11414e-06
1.11414e-06
1.11414e-06
1.11583e-06
1.11599e-06
1.1161e-06
1.11684e-06
1.11669e-06
1.11603e-06
1.11607e-06
1.11605e-06
1.11606e-06
1.11607e-06
1.11612e-06
1.11684e-06
1.11672e-06
1.11686e-06
1.11686e-06
1.11686e-06
1.11685e-06
1.10696e-06
1.1061e-06
1.10603e-06
1.10608e-06
1.10694e-06
1.10699e-06
1.10698e-06
1.10622e-06
1.10576e-06
1.10441e-06
1.10441e-06
1.10441e-06
1.1059e-06
1.10623e-06
1.10697e-06
1.10622e-06
1.10572e-06
1.10442e-06
1.10442e-06
1.10443e-06
1.10442e-06
1.10442e-06
1.10588e-06
1.10623e-06
1.10697e-06
1.10695e-06
1.10576e-06
1.10442e-06
1.10443e-06
1.10444e-06
1.10444e-06
1.10444e-06
1.10443e-06
1.10442e-06
1.10591e-06
1.10631e-06
1.10701e-06
1.1061e-06
1.10441e-06
1.10442e-06
1.10444e-06
1.10445e-06
1.10445e-06
1.10445e-06
1.10444e-06
1.10442e-06
1.10441e-06
1.10635e-06
1.10714e-06
1.10603e-06
1.10441e-06
1.10443e-06
1.10444e-06
1.10445e-06
1.10446e-06
1.10445e-06
1.10444e-06
1.10443e-06
1.10441e-06
1.10633e-06
1.10715e-06
1.10608e-06
1.10441e-06
1.10442e-06
1.10444e-06
1.10445e-06
1.10445e-06
1.10445e-06
1.10444e-06
1.10442e-06
1.10441e-06
1.10634e-06
1.10715e-06
1.10694e-06
1.1059e-06
1.10442e-06
1.10443e-06
1.10444e-06
1.10444e-06
1.10444e-06
1.10443e-06
1.10442e-06
1.10611e-06
1.10635e-06
1.10714e-06
1.10699e-06
1.10623e-06
1.10588e-06
1.10442e-06
1.10442e-06
1.10443e-06
1.10442e-06
1.10442e-06
1.10608e-06
1.10627e-06
1.10641e-06
1.10697e-06
1.10623e-06
1.10591e-06
1.10441e-06
1.10441e-06
1.10441e-06
1.10611e-06
1.10627e-06
1.10638e-06
1.10712e-06
1.10697e-06
1.10631e-06
1.10635e-06
1.10633e-06
1.10634e-06
1.10635e-06
1.10641e-06
1.10712e-06
1.10701e-06
1.10714e-06
1.10715e-06
1.10715e-06
1.10714e-06
1.09724e-06
1.09638e-06
1.09632e-06
1.09636e-06
1.09722e-06
1.09727e-06
1.09727e-06
1.0965e-06
1.09604e-06
1.09469e-06
1.09469e-06
1.09469e-06
1.09618e-06
1.09651e-06
1.09725e-06
1.0965e-06
1.096e-06
1.09469e-06
1.0947e-06
1.0947e-06
1.0947e-06
1.09469e-06
1.09616e-06
1.09651e-06
1.09725e-06
1.09724e-06
1.09604e-06
1.09469e-06
1.0947e-06
1.0947e-06
1.0947e-06
1.0947e-06
1.0947e-06
1.09469e-06
1.09619e-06
1.09659e-06
1.09729e-06
1.09638e-06
1.09469e-06
1.0947e-06
1.0947e-06
1.09471e-06
1.09471e-06
1.09471e-06
1.0947e-06
1.0947e-06
1.09469e-06
1.09663e-06
1.09742e-06
1.09632e-06
1.09469e-06
1.0947e-06
1.0947e-06
1.09471e-06
1.09471e-06
1.09471e-06
1.0947e-06
1.0947e-06
1.09469e-06
1.09661e-06
1.09743e-06
1.09636e-06
1.09469e-06
1.0947e-06
1.0947e-06
1.09471e-06
1.09471e-06
1.09471e-06
1.0947e-06
1.0947e-06
1.09469e-06
1.09662e-06
1.09743e-06
1.09722e-06
1.09618e-06
1.09469e-06
1.0947e-06
1.0947e-06
1.0947e-06
1.0947e-06
1.0947e-06
1.09469e-06
1.09639e-06
1.09663e-06
1.09742e-06
1.09727e-06
1.09651e-06
1.09616e-06
1.09469e-06
1.0947e-06
1.0947e-06
1.0947e-06
1.09469e-06
1.09636e-06
1.09655e-06
1.09669e-06
1.09725e-06
1.09651e-06
1.09619e-06
1.09469e-06
1.09469e-06
1.09469e-06
1.09639e-06
1.09655e-06
1.09667e-06
1.0974e-06
1.09725e-06
1.09659e-06
1.09663e-06
1.09661e-06
1.09662e-06
1.09663e-06
1.09669e-06
1.0974e-06
1.09729e-06
1.09742e-06
1.09743e-06
1.09743e-06
1.09742e-06
1.08752e-06
1.08666e-06
1.0866e-06
1.08665e-06
1.08751e-06
1.08755e-06
1.08755e-06
1.08679e-06
1.08632e-06
1.08497e-06
1.08497e-06
1.08497e-06
1.08647e-06
1.08679e-06
1.08753e-06
1.08679e-06
1.08628e-06
1.08497e-06
1.08497e-06
1.08497e-06
1.08497e-06
1.08497e-06
1.08644e-06
1.08679e-06
1.08753e-06
1.08752e-06
1.08632e-06
1.08497e-06
1.08497e-06
1.08498e-06
1.08498e-06
1.08498e-06
1.08497e-06
1.08497e-06
1.08647e-06
1.08688e-06
1.08757e-06
1.08666e-06
1.08497e-06
1.08497e-06
1.08498e-06
1.08498e-06
1.08498e-06
1.08498e-06
1.08498e-06
1.08497e-06
1.08497e-06
1.08691e-06
1.0877e-06
1.0866e-06
1.08497e-06
1.08497e-06
1.08498e-06
1.08498e-06
1.08498e-06
1.08498e-06
1.08498e-06
1.08497e-06
1.08497e-06
1.0869e-06
1.08771e-06
1.08665e-06
1.08497e-06
1.08497e-06
1.08498e-06
1.08498e-06
1.08498e-06
1.08498e-06
1.08498e-06
1.08497e-06
1.08497e-06
1.0869e-06
1.08771e-06
1.08751e-06
1.08647e-06
1.08497e-06
1.08497e-06
1.08498e-06
1.08498e-06
1.08498e-06
1.08497e-06
1.08497e-06
1.08667e-06
1.08692e-06
1.0877e-06
1.08755e-06
1.08679e-06
1.08644e-06
1.08497e-06
1.08497e-06
1.08497e-06
1.08497e-06
1.08497e-06
1.08664e-06
1.08683e-06
1.08697e-06
1.08753e-06
1.08679e-06
1.08647e-06
1.08497e-06
1.08497e-06
1.08497e-06
1.08667e-06
1.08683e-06
1.08695e-06
1.08769e-06
1.08753e-06
1.08688e-06
1.08691e-06
1.0869e-06
1.0869e-06
1.08692e-06
1.08697e-06
1.08769e-06
1.08757e-06
1.0877e-06
1.08771e-06
1.08771e-06
1.0877e-06
1.0778e-06
1.07695e-06
1.07688e-06
1.07693e-06
1.07779e-06
1.07783e-06
1.07783e-06
1.07707e-06
1.0766e-06
1.07525e-06
1.07525e-06
1.07525e-06
1.07675e-06
1.07708e-06
1.07781e-06
1.07707e-06
1.07656e-06
1.07525e-06
1.07525e-06
1.07525e-06
1.07525e-06
1.07525e-06
1.07672e-06
1.07707e-06
1.07782e-06
1.0778e-06
1.0766e-06
1.07525e-06
1.07525e-06
1.07525e-06
1.07525e-06
1.07525e-06
1.07525e-06
1.07525e-06
1.07675e-06
1.07716e-06
1.07785e-06
1.07695e-06
1.07525e-06
1.07525e-06
1.07525e-06
1.07525e-06
1.07526e-06
1.07525e-06
1.07525e-06
1.07525e-06
1.07525e-06
1.07719e-06
1.07798e-06
1.07688e-06
1.07525e-06
1.07525e-06
1.07525e-06
1.07526e-06
1.07526e-06
1.07526e-06
1.07525e-06
1.07525e-06
1.07525e-06
1.07718e-06
1.07799e-06
1.07693e-06
1.07525e-06
1.07525e-06
1.07525e-06
1.07525e-06
1.07526e-06
1.07525e-06
1.07525e-06
1.07525e-06
1.07525e-06
1.07718e-06
1.07799e-06
1.07779e-06
1.07675e-06
1.07525e-06
1.07525e-06
1.07525e-06
1.07525e-06
1.07525e-06
1.07525e-06
1.07525e-06
1.07695e-06
1.0772e-06
1.07798e-06
1.07783e-06
1.07708e-06
1.07672e-06
1.07525e-06
1.07525e-06
1.07525e-06
1.07525e-06
1.07525e-06
1.07692e-06
1.07711e-06
1.07725e-06
1.07781e-06
1.07707e-06
1.07675e-06
1.07525e-06
1.07525e-06
1.07525e-06
1.07695e-06
1.07711e-06
1.07723e-06
1.07797e-06
1.07782e-06
1.07716e-06
1.07719e-06
1.07718e-06
1.07718e-06
1.0772e-06
1.07725e-06
1.07797e-06
1.07785e-06
1.07798e-06
1.07799e-06
1.07799e-06
1.07798e-06
1.06808e-06
1.06723e-06
1.06716e-06
1.06721e-06
1.06807e-06
1.06812e-06
1.06811e-06
1.06735e-06
1.06688e-06
1.06553e-06
1.06553e-06
1.06553e-06
1.06703e-06
1.06736e-06
1.06809e-06
1.06735e-06
1.06684e-06
1.06553e-06
1.06553e-06
1.06553e-06
1.06553e-06
1.06553e-06
1.067e-06
1.06735e-06
1.0681e-06
1.06808e-06
1.06688e-06
1.06553e-06
1.06553e-06
1.06553e-06
1.06553e-06
1.06553e-06
1.06553e-06
1.06553e-06
1.06703e-06
1.06744e-06
1.06813e-06
1.06723e-06
1.06553e-06
1.06553e-06
1.06553e-06
1.06553e-06
1.06553e-06
1.06553e-06
1.06553e-06
1.06553e-06
1.06553e-06
1.06747e-06
1.06827e-06
1.06716e-06
1.06553e-06
1.06553e-06
1.06553e-06
1.06553e-06
1.06553e-06
1.06553e-06
1.06553e-06
1.06553e-06
1.06553e-06
1.06746e-06
1.06827e-06
1.06721e-06
1.06553e-06
1.06553e-06
1.06553e-06
1.06553e-06
1.06553e-06
1.06553e-06
1.06553e-06
1.06553e-06
1.06553e-06
1.06746e-06
1.06827e-06
1.06807e-06
1.06703e-06
1.06553e-06
1.06553e-06
1.06553e-06
1.06553e-06
1.06553e-06
1.06553e-06
1.06553e-06
1.06723e-06
1.06748e-06
1.06827e-06
1.06812e-06
1.06736e-06
1.067e-06
1.06553e-06
1.06553e-06
1.06553e-06
1.06553e-06
1.06553e-06
1.0672e-06
1.06739e-06
1.06753e-06
1.06809e-06
1.06735e-06
1.06703e-06
1.06553e-06
1.06553e-06
1.06553e-06
1.06723e-06
1.06739e-06
1.06751e-06
1.06825e-06
1.0681e-06
1.06744e-06
1.06747e-06
1.06746e-06
1.06746e-06
1.06748e-06
1.06754e-06
1.06825e-06
1.06813e-06
1.06827e-06
1.06827e-06
1.06827e-06
1.06826e-06
1.05836e-06
1.05751e-06
1.05744e-06
1.05749e-06
1.05835e-06
1.0584e-06
1.05839e-06
1.05763e-06
1.05716e-06
1.05581e-06
1.05581e-06
1.05581e-06
1.05731e-06
1.05764e-06
1.05837e-06
1.05763e-06
1.05713e-06
1.05581e-06
1.05581e-06
1.05581e-06
1.05581e-06
1.05581e-06
1.05729e-06
1.05764e-06
1.05838e-06
1.05836e-06
1.05716e-06
1.05581e-06
1.05581e-06
1.05581e-06
1.05581e-06
1.05581e-06
1.05581e-06
1.05581e-06
1.05731e-06
1.05772e-06
1.05842e-06
1.05751e-06
1.05581e-06
1.05581e-06
1.05581e-06
1.05581e-06
1.05581e-06
1.05581e-06
1.05581e-06
1.05581e-06
1.05581e-06
1.05775e-06
1.05855e-06
1.05744e-06
1.05581e-06
1.05581e-06
1.05581e-06
1.05581e-06
1.05581e-06
1.05581e-06
1.05581e-06
1.05581e-06
1.05581e-06
1.05774e-06
1.05855e-06
1.05749e-06
1.05581e-06
1.05581e-06
1.05581e-06
1.05581e-06
1.05581e-06
1.05581e-06
1.05581e-06
1.05581e-06
1.05581e-06
1.05775e-06
1.05856e-06
1.05835e-06
1.05731e-06
1.05581e-06
1.05581e-06
1.05581e-06
1.05581e-06
1.05581e-06
1.05581e-06
1.05581e-06
1.05752e-06
1.05776e-06
1.05855e-06
1.0584e-06
1.05764e-06
1.05729e-06
1.05581e-06
1.05581e-06
1.05581e-06
1.05581e-06
1.05581e-06
1.05748e-06
1.05768e-06
1.05782e-06
1.05837e-06
1.05764e-06
1.05731e-06
1.05581e-06
1.05581e-06
1.05581e-06
1.05752e-06
1.05768e-06
1.05779e-06
1.05853e-06
1.05838e-06
1.05772e-06
1.05775e-06
1.05774e-06
1.05775e-06
1.05776e-06
1.05782e-06
1.05853e-06
1.05842e-06
1.05855e-06
1.05855e-06
1.05856e-06
1.05855e-06
1.04864e-06
1.04779e-06
1.04772e-06
1.04777e-06
1.04863e-06
1.04868e-06
1.04867e-06
1.04791e-06
1.04744e-06
1.04609e-06
1.04609e-06
1.04609e-06
1.04759e-06
1.04792e-06
1.04866e-06
1.04791e-06
1.04741e-06
1.04609e-06
1.04609e-06
1.04609e-06
1.04609e-06
1.04609e-06
1.04757e-06
1.04792e-06
1.04866e-06
1.04864e-06
1.04744e-06
1.04609e-06
1.04609e-06
1.04609e-06
1.04609e-06
1.04609e-06
1.04609e-06
1.04609e-06
1.04759e-06
1.048e-06
1.0487e-06
1.04779e-06
1.04609e-06
1.04609e-06
1.04609e-06
1.04609e-06
1.04609e-06
1.04609e-06
1.04609e-06
1.04609e-06
1.04609e-06
1.04804e-06
1.04883e-06
1.04772e-06
1.04609e-06
1.04609e-06
1.04609e-06
1.04609e-06
1.04609e-06
1.04609e-06
1.04609e-06
1.04609e-06
1.04609e-06
1.04802e-06
1.04884e-06
1.04777e-06
1.04609e-06
1.04609e-06
1.04609e-06
1.04609e-06
1.04609e-06
1.04609e-06
1.04609e-06
1.04609e-06
1.04609e-06
1.04803e-06
1.04884e-06
1.04863e-06
1.04759e-06
1.04609e-06
1.04609e-06
1.04609e-06
1.04609e-06
1.04609e-06
1.04609e-06
1.04609e-06
1.0478e-06
1.04804e-06
1.04883e-06
1.04868e-06
1.04792e-06
1.04757e-06
1.04609e-06
1.04609e-06
1.04609e-06
1.04609e-06
1.04609e-06
1.04776e-06
1.04796e-06
1.0481e-06
1.04866e-06
1.04792e-06
1.04759e-06
1.04609e-06
1.04609e-06
1.04609e-06
1.0478e-06
1.04796e-06
1.04807e-06
1.04881e-06
1.04866e-06
1.048e-06
1.04804e-06
1.04802e-06
1.04803e-06
1.04804e-06
1.0481e-06
1.04881e-06
1.0487e-06
1.04883e-06
1.04884e-06
1.04884e-06
1.04883e-06
1.03893e-06
1.03807e-06
1.038e-06
1.03805e-06
1.03891e-06
1.03896e-06
1.03896e-06
1.03819e-06
1.03772e-06
1.03637e-06
1.03637e-06
1.03637e-06
1.03787e-06
1.0382e-06
1.03894e-06
1.03819e-06
1.03769e-06
1.03637e-06
1.03637e-06
1.03637e-06
1.03637e-06
1.03637e-06
1.03785e-06
1.0382e-06
1.03894e-06
1.03893e-06
1.03772e-06
1.03637e-06
1.03637e-06
1.03637e-06
1.03637e-06
1.03637e-06
1.03637e-06
1.03637e-06
1.03787e-06
1.03828e-06
1.03898e-06
1.03807e-06
1.03637e-06
1.03637e-06
1.03637e-06
1.03637e-06
1.03637e-06
1.03637e-06
1.03637e-06
1.03637e-06
1.03637e-06
1.03832e-06
1.03911e-06
1.038e-06
1.03637e-06
1.03637e-06
1.03637e-06
1.03637e-06
1.03637e-06
1.03637e-06
1.03637e-06
1.03637e-06
1.03637e-06
1.0383e-06
1.03912e-06
1.03805e-06
1.03637e-06
1.03637e-06
1.03637e-06
1.03637e-06
1.03637e-06
1.03637e-06
1.03637e-06
1.03637e-06
1.03637e-06
1.03831e-06
1.03912e-06
1.03891e-06
1.03787e-06
1.03637e-06
1.03637e-06
1.03637e-06
1.03637e-06
1.03637e-06
1.03637e-06
1.03637e-06
1.03808e-06
1.03832e-06
1.03911e-06
1.03896e-06
1.0382e-06
1.03785e-06
1.03637e-06
1.03637e-06
1.03637e-06
1.03637e-06
1.03637e-06
1.03804e-06
1.03824e-06
1.03838e-06
1.03894e-06
1.0382e-06
1.03787e-06
1.03637e-06
1.03637e-06
1.03637e-06
1.03808e-06
1.03824e-06
1.03835e-06
1.03909e-06
1.03894e-06
1.03828e-06
1.03832e-06
1.0383e-06
1.03831e-06
1.03832e-06
1.03838e-06
1.03909e-06
1.03898e-06
1.03911e-06
1.03912e-06
1.03912e-06
1.03911e-06
1.02921e-06
1.02835e-06
1.02828e-06
1.02833e-06
1.02919e-06
1.02924e-06
1.02924e-06
1.02847e-06
1.028e-06
1.02665e-06
1.02665e-06
1.02665e-06
1.02815e-06
1.02848e-06
1.02922e-06
1.02847e-06
1.02797e-06
1.02665e-06
1.02665e-06
1.02665e-06
1.02665e-06
1.02665e-06
1.02813e-06
1.02848e-06
1.02922e-06
1.02921e-06
1.028e-06
1.02665e-06
1.02665e-06
1.02665e-06
1.02665e-06
1.02665e-06
1.02665e-06
1.02665e-06
1.02815e-06
1.02856e-06
1.02926e-06
1.02835e-06
1.02665e-06
1.02665e-06
1.02665e-06
1.02665e-06
1.02665e-06
1.02665e-06
1.02665e-06
1.02665e-06
1.02665e-06
1.0286e-06
1.02939e-06
1.02828e-06
1.02665e-06
1.02665e-06
1.02665e-06
1.02665e-06
1.02665e-06
1.02665e-06
1.02665e-06
1.02665e-06
1.02665e-06
1.02858e-06
1.0294e-06
1.02833e-06
1.02665e-06
1.02665e-06
1.02665e-06
1.02665e-06
1.02665e-06
1.02665e-06
1.02665e-06
1.02665e-06
1.02665e-06
1.02859e-06
1.0294e-06
1.02919e-06
1.02815e-06
1.02665e-06
1.02665e-06
1.02665e-06
1.02665e-06
1.02665e-06
1.02665e-06
1.02665e-06
1.02836e-06
1.0286e-06
1.02939e-06
1.02924e-06
1.02848e-06
1.02813e-06
1.02665e-06
1.02665e-06
1.02665e-06
1.02665e-06
1.02665e-06
1.02833e-06
1.02852e-06
1.02866e-06
1.02922e-06
1.02848e-06
1.02815e-06
1.02665e-06
1.02665e-06
1.02665e-06
1.02836e-06
1.02852e-06
1.02864e-06
1.02937e-06
1.02922e-06
1.02856e-06
1.0286e-06
1.02858e-06
1.02859e-06
1.0286e-06
1.02866e-06
1.02937e-06
1.02926e-06
1.02939e-06
1.0294e-06
1.0294e-06
1.02939e-06
1.01949e-06
1.01863e-06
1.01857e-06
1.01861e-06
1.01947e-06
1.01952e-06
1.01952e-06
1.01876e-06
1.01829e-06
1.01693e-06
1.01694e-06
1.01693e-06
1.01843e-06
1.01876e-06
1.0195e-06
1.01876e-06
1.01825e-06
1.01693e-06
1.01694e-06
1.01694e-06
1.01694e-06
1.01693e-06
1.01841e-06
1.01876e-06
1.0195e-06
1.01949e-06
1.01829e-06
1.01693e-06
1.01694e-06
1.01694e-06
1.01694e-06
1.01694e-06
1.01694e-06
1.01693e-06
1.01843e-06
1.01885e-06
1.01954e-06
1.01863e-06
1.01693e-06
1.01694e-06
1.01694e-06
1.01694e-06
1.01694e-06
1.01694e-06
1.01694e-06
1.01694e-06
1.01693e-06
1.01888e-06
1.01967e-06
1.01857e-06
1.01694e-06
1.01694e-06
1.01694e-06
1.01694e-06
1.01694e-06
1.01694e-06
1.01694e-06
1.01694e-06
1.01694e-06
1.01886e-06
1.01968e-06
1.01861e-06
1.01693e-06
1.01694e-06
1.01694e-06
1.01694e-06
1.01694e-06
1.01694e-06
1.01694e-06
1.01694e-06
1.01693e-06
1.01887e-06
1.01968e-06
1.01947e-06
1.01843e-06
1.01693e-06
1.01694e-06
1.01694e-06
1.01694e-06
1.01694e-06
1.01694e-06
1.01693e-06
1.01864e-06
1.01888e-06
1.01967e-06
1.01952e-06
1.01876e-06
1.01841e-06
1.01693e-06
1.01694e-06
1.01694e-06
1.01694e-06
1.01693e-06
1.01861e-06
1.0188e-06
1.01894e-06
1.0195e-06
1.01876e-06
1.01843e-06
1.01693e-06
1.01694e-06
1.01693e-06
1.01864e-06
1.0188e-06
1.01892e-06
1.01966e-06
1.0195e-06
1.01885e-06
1.01888e-06
1.01886e-06
1.01887e-06
1.01888e-06
1.01894e-06
1.01966e-06
1.01954e-06
1.01967e-06
1.01968e-06
1.01968e-06
1.01967e-06
1.00977e-06
1.00892e-06
1.00885e-06
1.0089e-06
1.00976e-06
1.0098e-06
1.0098e-06
1.00904e-06
1.00857e-06
1.00722e-06
1.00722e-06
1.00722e-06
1.00871e-06
1.00904e-06
1.00978e-06
1.00904e-06
1.00853e-06
1.00722e-06
1.00722e-06
1.00722e-06
1.00722e-06
1.00722e-06
1.00869e-06
1.00904e-06
1.00978e-06
1.00977e-06
1.00857e-06
1.00722e-06
1.00722e-06
1.00722e-06
1.00722e-06
1.00722e-06
1.00722e-06
1.00722e-06
1.00872e-06
1.00913e-06
1.00982e-06
1.00892e-06
1.00722e-06
1.00722e-06
1.00722e-06
1.00722e-06
1.00722e-06
1.00722e-06
1.00722e-06
1.00722e-06
1.00722e-06
1.00916e-06
1.00995e-06
1.00885e-06
1.00722e-06
1.00722e-06
1.00722e-06
1.00722e-06
1.00722e-06
1.00722e-06
1.00722e-06
1.00722e-06
1.00722e-06
1.00915e-06
1.00996e-06
1.0089e-06
1.00722e-06
1.00722e-06
1.00722e-06
1.00722e-06
1.00722e-06
1.00722e-06
1.00722e-06
1.00722e-06
1.00722e-06
1.00915e-06
1.00996e-06
1.00976e-06
1.00871e-06
1.00722e-06
1.00722e-06
1.00722e-06
1.00722e-06
1.00722e-06
1.00722e-06
1.00722e-06
1.00892e-06
1.00917e-06
1.00995e-06
1.0098e-06
1.00904e-06
1.00869e-06
1.00722e-06
1.00722e-06
1.00722e-06
1.00722e-06
1.00722e-06
1.00889e-06
1.00908e-06
1.00922e-06
1.00978e-06
1.00904e-06
1.00872e-06
1.00722e-06
1.00722e-06
1.00722e-06
1.00892e-06
1.00908e-06
1.0092e-06
1.00994e-06
1.00978e-06
1.00913e-06
1.00916e-06
1.00915e-06
1.00915e-06
1.00917e-06
1.00922e-06
1.00994e-06
1.00982e-06
1.00995e-06
1.00996e-06
1.00996e-06
1.00995e-06
1.00005e-06
9.99196e-07
9.99129e-07
9.99178e-07
1.00004e-06
1.00008e-06
1.00008e-06
9.99318e-07
9.98848e-07
9.97497e-07
9.97498e-07
9.97497e-07
9.98996e-07
9.99326e-07
1.00006e-06
9.99318e-07
9.98814e-07
9.97498e-07
9.97499e-07
9.97498e-07
9.97499e-07
9.97498e-07
9.98973e-07
9.99323e-07
1.00007e-06
1.00005e-06
9.98848e-07
9.97497e-07
9.97498e-07
9.97498e-07
9.97498e-07
9.97498e-07
9.97498e-07
9.97497e-07
9.98997e-07
9.99408e-07
1.0001e-06
9.99196e-07
9.97497e-07
9.97499e-07
9.97498e-07
9.97499e-07
9.97498e-07
9.97499e-07
9.97498e-07
9.97499e-07
9.97497e-07
9.99442e-07
1.00023e-06
9.99129e-07
9.97498e-07
9.97498e-07
9.97498e-07
9.97498e-07
9.97498e-07
9.97498e-07
9.97498e-07
9.97498e-07
9.97498e-07
9.99427e-07
1.00024e-06
9.99178e-07
9.97497e-07
9.97499e-07
9.97498e-07
9.97499e-07
9.97498e-07
9.97499e-07
9.97498e-07
9.97499e-07
9.97497e-07
9.99433e-07
1.00024e-06
1.00004e-06
9.98996e-07
9.97497e-07
9.97498e-07
9.97498e-07
9.97498e-07
9.97498e-07
9.97498e-07
9.97497e-07
9.99204e-07
9.99447e-07
1.00023e-06
1.00008e-06
9.99326e-07
9.98973e-07
9.97497e-07
9.97499e-07
9.97498e-07
9.97499e-07
9.97497e-07
9.9917e-07
9.99363e-07
9.99504e-07
1.00006e-06
9.99323e-07
9.98997e-07
9.97497e-07
9.97498e-07
9.97497e-07
9.99204e-07
9.99363e-07
9.99479e-07
1.00022e-06
1.00007e-06
9.99408e-07
9.99442e-07
9.99427e-07
9.99433e-07
9.99447e-07
9.99504e-07
1.00022e-06
1.0001e-06
1.00023e-06
1.00024e-06
1.00024e-06
1.00023e-06
9.90332e-07
9.89478e-07
9.8941e-07
9.89459e-07
9.90319e-07
9.90366e-07
9.90362e-07
9.89599e-07
9.89129e-07
9.87778e-07
9.87779e-07
9.87778e-07
9.89278e-07
9.89607e-07
9.90344e-07
9.89599e-07
9.89095e-07
9.87779e-07
9.8778e-07
9.87779e-07
9.8778e-07
9.87779e-07
9.89254e-07
9.89605e-07
9.90347e-07
9.90332e-07
9.89129e-07
9.87779e-07
9.87779e-07
9.87779e-07
9.87779e-07
9.87779e-07
9.87779e-07
9.87779e-07
9.89279e-07
9.89689e-07
9.90385e-07
9.89478e-07
9.87778e-07
9.8778e-07
9.87779e-07
9.8778e-07
9.87779e-07
9.8778e-07
9.87779e-07
9.8778e-07
9.87778e-07
9.89724e-07
9.90516e-07
9.8941e-07
9.87779e-07
9.87779e-07
9.87779e-07
9.87779e-07
9.87779e-07
9.87779e-07
9.87779e-07
9.87779e-07
9.87779e-07
9.89708e-07
9.90523e-07
9.89459e-07
9.87778e-07
9.8778e-07
9.87779e-07
9.8778e-07
9.87779e-07
9.8778e-07
9.87779e-07
9.8778e-07
9.87778e-07
9.89715e-07
9.90524e-07
9.90319e-07
9.89278e-07
9.87779e-07
9.87779e-07
9.87779e-07
9.87779e-07
9.87779e-07
9.87779e-07
9.87779e-07
9.89485e-07
9.89728e-07
9.90515e-07
9.90366e-07
9.89607e-07
9.89254e-07
9.87779e-07
9.8778e-07
9.87779e-07
9.8778e-07
9.87779e-07
9.89451e-07
9.89645e-07
9.89786e-07
9.90344e-07
9.89605e-07
9.89279e-07
9.87778e-07
9.87779e-07
9.87778e-07
9.89485e-07
9.89645e-07
9.89761e-07
9.905e-07
9.90347e-07
9.89689e-07
9.89724e-07
9.89708e-07
9.89715e-07
9.89728e-07
9.89785e-07
9.905e-07
9.90385e-07
9.90516e-07
9.90523e-07
9.90524e-07
9.90515e-07
9.80613e-07
9.79759e-07
9.79691e-07
9.7974e-07
9.806e-07
9.80647e-07
9.80643e-07
9.7988e-07
9.79411e-07
9.7806e-07
9.7806e-07
9.7806e-07
9.79559e-07
9.79888e-07
9.80625e-07
9.79881e-07
9.79376e-07
9.7806e-07
9.78061e-07
9.7806e-07
9.78061e-07
9.7806e-07
9.79536e-07
9.79886e-07
9.80629e-07
9.80613e-07
9.79411e-07
9.7806e-07
9.78061e-07
9.7806e-07
9.7806e-07
9.7806e-07
9.78061e-07
9.7806e-07
9.7956e-07
9.7997e-07
9.80666e-07
9.79759e-07
9.7806e-07
9.78061e-07
9.7806e-07
9.78061e-07
9.7806e-07
9.78061e-07
9.7806e-07
9.78061e-07
9.7806e-07
9.80005e-07
9.80797e-07
9.79691e-07
9.7806e-07
9.7806e-07
9.7806e-07
9.7806e-07
9.7806e-07
9.7806e-07
9.7806e-07
9.7806e-07
9.7806e-07
9.79989e-07
9.80804e-07
9.7974e-07
9.7806e-07
9.78061e-07
9.7806e-07
9.78061e-07
9.7806e-07
9.78061e-07
9.7806e-07
9.78061e-07
9.7806e-07
9.79996e-07
9.80805e-07
9.806e-07
9.79559e-07
9.7806e-07
9.78061e-07
9.7806e-07
9.7806e-07
9.7806e-07
9.78061e-07
9.7806e-07
9.79766e-07
9.80009e-07
9.80796e-07
9.80647e-07
9.79888e-07
9.79535e-07
9.7806e-07
9.78061e-07
9.7806e-07
9.78061e-07
9.7806e-07
9.79732e-07
9.79926e-07
9.80067e-07
9.80625e-07
9.79886e-07
9.7956e-07
9.7806e-07
9.7806e-07
9.7806e-07
9.79766e-07
9.79926e-07
9.80042e-07
9.80781e-07
9.80629e-07
9.7997e-07
9.80005e-07
9.79989e-07
9.79996e-07
9.80009e-07
9.80067e-07
9.80781e-07
9.80666e-07
9.80797e-07
9.80804e-07
9.80805e-07
9.80796e-07
9.70895e-07
9.7004e-07
9.69972e-07
9.70021e-07
9.70881e-07
9.70928e-07
9.70924e-07
9.70162e-07
9.69692e-07
9.68341e-07
9.68341e-07
9.68341e-07
9.6984e-07
9.70169e-07
9.70906e-07
9.70162e-07
9.69657e-07
9.68341e-07
9.68342e-07
9.68341e-07
9.68342e-07
9.68341e-07
9.69817e-07
9.70167e-07
9.7091e-07
9.70895e-07
9.69692e-07
9.68341e-07
9.68342e-07
9.68341e-07
9.68342e-07
9.68341e-07
9.68342e-07
9.68341e-07
9.69841e-07
9.70251e-07
9.70948e-07
9.7004e-07
9.68341e-07
9.68342e-07
9.68341e-07
9.68342e-07
9.68341e-07
9.68342e-07
9.68341e-07
9.68342e-07
9.68341e-07
9.70286e-07
9.71079e-07
9.69972e-07
9.68341e-07
9.68341e-07
9.68342e-07
9.68341e-07
9.68342e-07
9.68341e-07
9.68342e-07
9.68341e-07
9.68341e-07
9.70271e-07
9.71085e-07
9.70021e-07
9.68341e-07
9.68342e-07
9.68341e-07
9.68342e-07
9.68341e-07
9.68342e-07
9.68341e-07
9.68342e-07
9.68341e-07
9.70277e-07
9.71086e-07
9.70881e-07
9.6984e-07
9.68341e-07
9.68342e-07
9.68341e-07
9.68342e-07
9.68341e-07
9.68342e-07
9.68341e-07
9.70047e-07
9.70291e-07
9.71078e-07
9.70928e-07
9.70169e-07
9.69817e-07
9.68341e-07
9.68342e-07
9.68341e-07
9.68342e-07
9.68341e-07
9.70013e-07
9.70207e-07
9.70348e-07
9.70906e-07
9.70167e-07
9.69841e-07
9.68341e-07
9.68341e-07
9.68341e-07
9.70047e-07
9.70207e-07
9.70323e-07
9.71062e-07
9.7091e-07
9.70251e-07
9.70286e-07
9.70271e-07
9.70277e-07
9.70291e-07
9.70348e-07
9.71062e-07
9.70948e-07
9.71079e-07
9.71085e-07
9.71086e-07
9.71078e-07
9.61176e-07
9.60321e-07
9.60253e-07
9.60302e-07
9.61162e-07
9.61209e-07
9.61205e-07
9.60443e-07
9.59973e-07
9.58622e-07
9.58622e-07
9.58622e-07
9.60121e-07
9.60451e-07
9.61187e-07
9.60443e-07
9.59938e-07
9.58622e-07
9.58623e-07
9.58623e-07
9.58623e-07
9.58622e-07
9.60098e-07
9.60448e-07
9.61191e-07
9.61176e-07
9.59973e-07
9.58622e-07
9.58623e-07
9.58622e-07
9.58623e-07
9.58622e-07
9.58623e-07
9.58622e-07
9.60122e-07
9.60532e-07
9.61229e-07
9.60321e-07
9.58622e-07
9.58623e-07
9.58622e-07
9.58623e-07
9.58622e-07
9.58623e-07
9.58622e-07
9.58623e-07
9.58622e-07
9.60567e-07
9.6136e-07
9.60253e-07
9.58622e-07
9.58623e-07
9.58623e-07
9.58622e-07
9.58623e-07
9.58622e-07
9.58623e-07
9.58623e-07
9.58622e-07
9.60552e-07
9.61366e-07
9.60302e-07
9.58622e-07
9.58623e-07
9.58622e-07
9.58623e-07
9.58622e-07
9.58623e-07