/*--------------------------------*- C++ -*----------------------------------*\
| =========                 |                                                 |
| \\      /  F ield         | OpenFOAM: The Open Source CFD Toolbox           |
|  \\    /   O peration     | Version:  v2012                                 |
|   \\  /    A nd           | Website:  www.openfoam.com                      |
|    \\/     M anipulation  |                                                 |
\*---------------------------------------------------------------------------*/
FoamFile
{
    version     2.0;
    format      ascii;
    class       volScalarField;
    location    "91";
    object      p;
}
// * * * * * * * * * * * * * * * * * * * * * * * * * * * * * * * * * * * * * //

dimensions      [0 2 -2 0 0 0 0];


internalField   nonuniform List<scalar> 
292667
(
9.66016e-07
9.57332e-07
9.56727e-07
9.56778e-07
9.57579e-07
9.66825e-07
9.57533e-07
9.55481e-07
9.54263e-07
9.53759e-07
9.53823e-07
9.54475e-07
9.55869e-07
9.58085e-07
9.57532e-07
9.54889e-07
9.53211e-07
9.52279e-07
9.51885e-07
9.51937e-07
9.52445e-07
9.53524e-07
9.55403e-07
9.58211e-07
9.66016e-07
9.55481e-07
9.53211e-07
9.51845e-07
9.51079e-07
9.50751e-07
9.50795e-07
9.5122e-07
9.52108e-07
9.53654e-07
9.56181e-07
9.65383e-07
9.57332e-07
9.54263e-07
9.52279e-07
9.51079e-07
9.50399e-07
9.50104e-07
9.50144e-07
9.50526e-07
9.51318e-07
9.52678e-07
9.54915e-07
9.60499e-07
9.56726e-07
9.53759e-07
9.51885e-07
9.50751e-07
9.50104e-07
9.49823e-07
9.49862e-07
9.50227e-07
9.5098e-07
9.52269e-07
9.54392e-07
9.59047e-07
9.56778e-07
9.53823e-07
9.51937e-07
9.50795e-07
9.50144e-07
9.49862e-07
9.49901e-07
9.50269e-07
9.51028e-07
9.52327e-07
9.54467e-07
9.59333e-07
9.57579e-07
9.54475e-07
9.52445e-07
9.51219e-07
9.50526e-07
9.50227e-07
9.50269e-07
9.50659e-07
9.51469e-07
9.52865e-07
9.55163e-07
9.60774e-07
9.66825e-07
9.55869e-07
9.53524e-07
9.52108e-07
9.51317e-07
9.5098e-07
9.51027e-07
9.51469e-07
9.52395e-07
9.54011e-07
9.56625e-07
9.65207e-07
9.58084e-07
9.55403e-07
9.53654e-07
9.52678e-07
9.52269e-07
9.52327e-07
9.52865e-07
9.54011e-07
9.55992e-07
9.61434e-07
9.58211e-07
9.56181e-07
9.54915e-07
9.54392e-07
9.54467e-07
9.55163e-07
9.56624e-07
9.61434e-07
9.65382e-07
9.60499e-07
9.59047e-07
9.59333e-07
9.60774e-07
9.65206e-07
9.43697e-07
9.43183e-07
9.43142e-07
9.43194e-07
9.43766e-07
9.4361e-07
9.43709e-07
9.4331e-07
9.43014e-07
9.42033e-07
9.42017e-07
9.42034e-07
9.43176e-07
9.43382e-07
9.43782e-07
9.43309e-07
9.42987e-07
9.42061e-07
9.42025e-07
9.42057e-07
9.42026e-07
9.42062e-07
9.43161e-07
9.43373e-07
9.43773e-07
9.43697e-07
9.43014e-07
9.42061e-07
9.42005e-07
9.42022e-07
9.41999e-07
9.42022e-07
9.42005e-07
9.42062e-07
9.43168e-07
9.43413e-07
9.43775e-07
9.43183e-07
9.42033e-07
9.42025e-07
9.42022e-07
9.4198e-07
9.41985e-07
9.41981e-07
9.42023e-07
9.42026e-07
9.42034e-07
9.43583e-07
9.43967e-07
9.43142e-07
9.42017e-07
9.42057e-07
9.41999e-07
9.41985e-07
9.41972e-07
9.41985e-07
9.41999e-07
9.42057e-07
9.42017e-07
9.43602e-07
9.4392e-07
9.43194e-07
9.42034e-07
9.42026e-07
9.42022e-07
9.41981e-07
9.41985e-07
9.41981e-07
9.42022e-07
9.42026e-07
9.42034e-07
9.43591e-07
9.43936e-07
9.43766e-07
9.43176e-07
9.42062e-07
9.42005e-07
9.42022e-07
9.41999e-07
9.42023e-07
9.42006e-07
9.42062e-07
9.4338e-07
9.4349e-07
9.4392e-07
9.4361e-07
9.43381e-07
9.43161e-07
9.42062e-07
9.42026e-07
9.42057e-07
9.42026e-07
9.42062e-07
9.43348e-07
9.43453e-07
9.43441e-07
9.43782e-07
9.43373e-07
9.43168e-07
9.42034e-07
9.42017e-07
9.42034e-07
9.4338e-07
9.43453e-07
9.43468e-07
9.4387e-07
9.43773e-07
9.43413e-07
9.43582e-07
9.43602e-07
9.43591e-07
9.4349e-07
9.43441e-07
9.4387e-07
9.43775e-07
9.43967e-07
9.43919e-07
9.43936e-07
9.4392e-07
9.35661e-07
9.35062e-07
9.35013e-07
9.35056e-07
9.35696e-07
9.35692e-07
9.35663e-07
9.35145e-07
9.34797e-07
9.33867e-07
9.33866e-07
9.33867e-07
9.34955e-07
9.35189e-07
9.35694e-07
9.35145e-07
9.3477e-07
9.33901e-07
9.33909e-07
9.33936e-07
9.3391e-07
9.33901e-07
9.3495e-07
9.35188e-07
9.35695e-07
9.35661e-07
9.34797e-07
9.33901e-07
9.33921e-07
9.33958e-07
9.33953e-07
9.33958e-07
9.33921e-07
9.33901e-07
9.34964e-07
9.35258e-07
9.357e-07
9.35062e-07
9.33867e-07
9.3391e-07
9.33958e-07
9.33963e-07
9.33982e-07
9.33963e-07
9.33958e-07
9.3391e-07
9.33867e-07
9.35347e-07
9.35864e-07
9.35013e-07
9.33866e-07
9.33936e-07
9.33953e-07
9.33982e-07
9.33982e-07
9.33982e-07
9.33953e-07
9.33937e-07
9.33866e-07
9.35356e-07
9.35894e-07
9.35056e-07
9.33867e-07
9.3391e-07
9.33958e-07
9.33963e-07
9.33982e-07
9.33964e-07
9.33958e-07
9.3391e-07
9.33867e-07
9.35352e-07
9.35893e-07
9.35696e-07
9.34955e-07
9.33901e-07
9.33921e-07
9.33958e-07
9.33953e-07
9.33959e-07
9.33921e-07
9.33901e-07
9.35184e-07
9.35319e-07
9.35846e-07
9.35692e-07
9.35189e-07
9.3495e-07
9.33901e-07
9.3391e-07
9.33936e-07
9.3391e-07
9.33901e-07
9.35163e-07
9.35259e-07
9.35331e-07
9.35694e-07
9.35188e-07
9.34964e-07
9.33867e-07
9.33866e-07
9.33867e-07
9.35184e-07
9.35259e-07
9.35314e-07
9.3582e-07
9.35695e-07
9.35258e-07
9.35347e-07
9.35356e-07
9.35352e-07
9.35319e-07
9.35331e-07
9.35821e-07
9.357e-07
9.35864e-07
9.35893e-07
9.35893e-07
9.35846e-07
9.27656e-07
9.27046e-07
9.26992e-07
9.27037e-07
9.27688e-07
9.27688e-07
9.27658e-07
9.27127e-07
9.26761e-07
9.25814e-07
9.25816e-07
9.25814e-07
9.26913e-07
9.2716e-07
9.27688e-07
9.27127e-07
9.26727e-07
9.25833e-07
9.25847e-07
9.2586e-07
9.25847e-07
9.25833e-07
9.26898e-07
9.27158e-07
9.27691e-07
9.27655e-07
9.26761e-07
9.25833e-07
9.25856e-07
9.25882e-07
9.25882e-07
9.25882e-07
9.25856e-07
9.25833e-07
9.26918e-07
9.2724e-07
9.27695e-07
9.27046e-07
9.25814e-07
9.25848e-07
9.25882e-07
9.25896e-07
9.25909e-07
9.25896e-07
9.25882e-07
9.25848e-07
9.25814e-07
9.27321e-07
9.2786e-07
9.26992e-07
9.25816e-07
9.2586e-07
9.25882e-07
9.25909e-07
9.25911e-07
9.25909e-07
9.25882e-07
9.2586e-07
9.25816e-07
9.27323e-07
9.27885e-07
9.27037e-07
9.25814e-07
9.25847e-07
9.25882e-07
9.25896e-07
9.25909e-07
9.25896e-07
9.25882e-07
9.25848e-07
9.25814e-07
9.2732e-07
9.27884e-07
9.27688e-07
9.26912e-07
9.25833e-07
9.25856e-07
9.25882e-07
9.25882e-07
9.25882e-07
9.25856e-07
9.25833e-07
9.27139e-07
9.27298e-07
9.2784e-07
9.27688e-07
9.2716e-07
9.26898e-07
9.25833e-07
9.25848e-07
9.2586e-07
9.25848e-07
9.25833e-07
9.27113e-07
9.27225e-07
9.27322e-07
9.27688e-07
9.27158e-07
9.26918e-07
9.25814e-07
9.25816e-07
9.25814e-07
9.27139e-07
9.27225e-07
9.27299e-07
9.27817e-07
9.2769e-07
9.2724e-07
9.27321e-07
9.27323e-07
9.2732e-07
9.27298e-07
9.27321e-07
9.27817e-07
9.27695e-07
9.2786e-07
9.27885e-07
9.27884e-07
9.2784e-07
9.1965e-07
9.19037e-07
9.18981e-07
9.19027e-07
9.19681e-07
9.19682e-07
9.19653e-07
9.19117e-07
9.18744e-07
9.17789e-07
9.1779e-07
9.17789e-07
9.18895e-07
9.19148e-07
9.19683e-07
9.19117e-07
9.18707e-07
9.17798e-07
9.17809e-07
9.17815e-07
9.17809e-07
9.17798e-07
9.18875e-07
9.19145e-07
9.19686e-07
9.19649e-07
9.18744e-07
9.17798e-07
9.17814e-07
9.17829e-07
9.17831e-07
9.17829e-07
9.17814e-07
9.17798e-07
9.18899e-07
9.19231e-07
9.19689e-07
9.19036e-07
9.17789e-07
9.17809e-07
9.17829e-07
9.17841e-07
9.17849e-07
9.17841e-07
9.17829e-07
9.17809e-07
9.17788e-07
9.1931e-07
9.19854e-07
9.18981e-07
9.1779e-07
9.17815e-07
9.17831e-07
9.17849e-07
9.17851e-07
9.17849e-07
9.17831e-07
9.17815e-07
9.1779e-07
9.19309e-07
9.19878e-07
9.19027e-07
9.17788e-07
9.17809e-07
9.17829e-07
9.17841e-07
9.17849e-07
9.17841e-07
9.17829e-07
9.17809e-07
9.17788e-07
9.19307e-07
9.19878e-07
9.19681e-07
9.18895e-07
9.17798e-07
9.17814e-07
9.1783e-07
9.17831e-07
9.17829e-07
9.17814e-07
9.17798e-07
9.1912e-07
9.19288e-07
9.19833e-07
9.19682e-07
9.19148e-07
9.18875e-07
9.17798e-07
9.17809e-07
9.17815e-07
9.17809e-07
9.17798e-07
9.1909e-07
9.19211e-07
9.19315e-07
9.19683e-07
9.19145e-07
9.18899e-07
9.17788e-07
9.1779e-07
9.17788e-07
9.1912e-07
9.19211e-07
9.19292e-07
9.19812e-07
9.19686e-07
9.19231e-07
9.19309e-07
9.19309e-07
9.19307e-07
9.19288e-07
9.19315e-07
9.19812e-07
9.19689e-07
9.19854e-07
9.19878e-07
9.19878e-07
9.19833e-07
9.11642e-07
9.11027e-07
9.10972e-07
9.11018e-07
9.11673e-07
9.11675e-07
9.11646e-07
9.11108e-07
9.10732e-07
9.09773e-07
9.09774e-07
9.09772e-07
9.10883e-07
9.11138e-07
9.11676e-07
9.11108e-07
9.10694e-07
9.09778e-07
9.09784e-07
9.09787e-07
9.09784e-07
9.09777e-07
9.10862e-07
9.11135e-07
9.11679e-07
9.11642e-07
9.10732e-07
9.09778e-07
9.09787e-07
9.09795e-07
9.09797e-07
9.09795e-07
9.09787e-07
9.09778e-07
9.10887e-07
9.11223e-07
9.11682e-07
9.11027e-07
9.09773e-07
9.09785e-07
9.09796e-07
9.09804e-07
9.09808e-07
9.09804e-07
9.09796e-07
9.09785e-07
9.09772e-07
9.113e-07
9.11847e-07
9.10971e-07
9.09774e-07
9.09787e-07
9.09797e-07
9.09807e-07
9.09809e-07
9.09807e-07
9.09797e-07
9.09787e-07
9.09774e-07
9.11298e-07
9.1187e-07
9.11018e-07
9.09772e-07
9.09785e-07
9.09795e-07
9.09804e-07
9.09808e-07
9.09804e-07
9.09795e-07
9.09784e-07
9.09772e-07
9.11297e-07
9.1187e-07
9.11673e-07
9.10883e-07
9.09777e-07
9.09787e-07
9.09796e-07
9.09797e-07
9.09796e-07
9.09787e-07
9.09777e-07
9.11107e-07
9.11279e-07
9.11825e-07
9.11675e-07
9.11138e-07
9.10862e-07
9.09778e-07
9.09785e-07
9.09787e-07
9.09785e-07
9.09778e-07
9.11075e-07
9.112e-07
9.11307e-07
9.11676e-07
9.11135e-07
9.10886e-07
9.09773e-07
9.09774e-07
9.09773e-07
9.11107e-07
9.112e-07
9.11283e-07
9.11805e-07
9.11679e-07
9.11222e-07
9.113e-07
9.11298e-07
9.11297e-07
9.11279e-07
9.11308e-07
9.11805e-07
9.11682e-07
9.11847e-07
9.1187e-07
9.1187e-07
9.11825e-07
9.03633e-07
9.03018e-07
9.02962e-07
9.03008e-07
9.03664e-07
9.03666e-07
9.03638e-07
9.03099e-07
9.02722e-07
9.0176e-07
9.01761e-07
9.0176e-07
9.02873e-07
9.03129e-07
9.03668e-07
9.03099e-07
9.02683e-07
9.01763e-07
9.01767e-07
9.01768e-07
9.01767e-07
9.01763e-07
9.0285e-07
9.03126e-07
9.0367e-07
9.03633e-07
9.02722e-07
9.01763e-07
9.01768e-07
9.01773e-07
9.01774e-07
9.01773e-07
9.01768e-07
9.01763e-07
9.02876e-07
9.03214e-07
9.03673e-07
9.03018e-07
9.0176e-07
9.01767e-07
9.01773e-07
9.01778e-07
9.0178e-07
9.01778e-07
9.01773e-07
9.01767e-07
9.0176e-07
9.0329e-07
9.03838e-07
9.02962e-07
9.01761e-07
9.01768e-07
9.01774e-07
9.0178e-07
9.01781e-07
9.0178e-07
9.01774e-07
9.01768e-07
9.01761e-07
9.03288e-07
9.03861e-07
9.03008e-07
9.0176e-07
9.01767e-07
9.01773e-07
9.01778e-07
9.0178e-07
9.01778e-07
9.01773e-07
9.01767e-07
9.0176e-07
9.03287e-07
9.0386e-07
9.03664e-07
9.02873e-07
9.01763e-07
9.01768e-07
9.01773e-07
9.01774e-07
9.01773e-07
9.01768e-07
9.01763e-07
9.03096e-07
9.0327e-07
9.03817e-07
9.03666e-07
9.03129e-07
9.0285e-07
9.01763e-07
9.01767e-07
9.01768e-07
9.01767e-07
9.01763e-07
9.03064e-07
9.03191e-07
9.03299e-07
9.03668e-07
9.03126e-07
9.02876e-07
9.0176e-07
9.01761e-07
9.0176e-07
9.03096e-07
9.03191e-07
9.03275e-07
9.03797e-07
9.0367e-07
9.03214e-07
9.0329e-07
9.03288e-07
9.03287e-07
9.0327e-07
9.03299e-07
9.03797e-07
9.03673e-07
9.03838e-07
9.03861e-07
9.03861e-07
9.03816e-07
8.95624e-07
8.95008e-07
8.94952e-07
8.94999e-07
8.95655e-07
8.95657e-07
8.95629e-07
8.9509e-07
8.94712e-07
8.93749e-07
8.9375e-07
8.93749e-07
8.94863e-07
8.95119e-07
8.95658e-07
8.9509e-07
8.94673e-07
8.9375e-07
8.93754e-07
8.93754e-07
8.93754e-07
8.9375e-07
8.9484e-07
8.95116e-07
8.95661e-07
8.95624e-07
8.94712e-07
8.9375e-07
8.93754e-07
8.93756e-07
8.93757e-07
8.93756e-07
8.93754e-07
8.9375e-07
8.94866e-07
8.95204e-07
8.95664e-07
8.95008e-07
8.93749e-07
8.93754e-07
8.93756e-07
8.93759e-07
8.9376e-07
8.93759e-07
8.93756e-07
8.93754e-07
8.93749e-07
8.95281e-07
8.95829e-07
8.94952e-07
8.9375e-07
8.93753e-07
8.93757e-07
8.9376e-07
8.93761e-07
8.9376e-07
8.93757e-07
8.93754e-07
8.9375e-07
8.95279e-07
8.95852e-07
8.94999e-07
8.93749e-07
8.93754e-07
8.93756e-07
8.9376e-07
8.9376e-07
8.9376e-07
8.93756e-07
8.93754e-07
8.93749e-07
8.95277e-07
8.95851e-07
8.95655e-07
8.94863e-07
8.9375e-07
8.93754e-07
8.93756e-07
8.93757e-07
8.93756e-07
8.93754e-07
8.9375e-07
8.95086e-07
8.95261e-07
8.95807e-07
8.95657e-07
8.95119e-07
8.9484e-07
8.9375e-07
8.93754e-07
8.93754e-07
8.93754e-07
8.9375e-07
8.95053e-07
8.95181e-07
8.9529e-07
8.95658e-07
8.95116e-07
8.94866e-07
8.93749e-07
8.9375e-07
8.93749e-07
8.95086e-07
8.95181e-07
8.95266e-07
8.95788e-07
8.95661e-07
8.95204e-07
8.95281e-07
8.95279e-07
8.95277e-07
8.95261e-07
8.9529e-07
8.95788e-07
8.95664e-07
8.95829e-07
8.95852e-07
8.95852e-07
8.95807e-07
8.87614e-07
8.86999e-07
8.86943e-07
8.86989e-07
8.87645e-07
8.87648e-07
8.87619e-07
8.8708e-07
8.86702e-07
8.85738e-07
8.85739e-07
8.85738e-07
8.86853e-07
8.8711e-07
8.87649e-07
8.8708e-07
8.86663e-07
8.85739e-07
8.85742e-07
8.85741e-07
8.85742e-07
8.85739e-07
8.8683e-07
8.87107e-07
8.87652e-07
8.87614e-07
8.86702e-07
8.85739e-07
8.85742e-07
8.85743e-07
8.85743e-07
8.85743e-07
8.85742e-07
8.85739e-07
8.86856e-07
8.87195e-07
8.87655e-07
8.86999e-07
8.85738e-07
8.85742e-07
8.85743e-07
8.85745e-07
8.85745e-07
8.85745e-07
8.85743e-07
8.85742e-07
8.85738e-07
8.87272e-07
8.87819e-07
8.86943e-07
8.85739e-07
8.85741e-07
8.85743e-07
8.85745e-07
8.85746e-07
8.85745e-07
8.85743e-07
8.85741e-07
8.85739e-07
8.87269e-07
8.87843e-07
8.86989e-07
8.85738e-07
8.85742e-07
8.85743e-07
8.85745e-07
8.85745e-07
8.85745e-07
8.85743e-07
8.85742e-07
8.85738e-07
8.87268e-07
8.87842e-07
8.87645e-07
8.86853e-07
8.85739e-07
8.85742e-07
8.85743e-07
8.85743e-07
8.85743e-07
8.85742e-07
8.85739e-07
8.87076e-07
8.87251e-07
8.87798e-07
8.87648e-07
8.8711e-07
8.8683e-07
8.85739e-07
8.85742e-07
8.85741e-07
8.85742e-07
8.85739e-07
8.87044e-07
8.87171e-07
8.8728e-07
8.87649e-07
8.87107e-07
8.86856e-07
8.85739e-07
8.85739e-07
8.85738e-07
8.87077e-07
8.87172e-07
8.87257e-07
8.87779e-07
8.87652e-07
8.87195e-07
8.87272e-07
8.87269e-07
8.87268e-07
8.87252e-07
8.8728e-07
8.87779e-07
8.87655e-07
8.87819e-07
8.87843e-07
8.87842e-07
8.87798e-07
8.79605e-07
8.78989e-07
8.78933e-07
8.78979e-07
8.79636e-07
8.79638e-07
8.7961e-07
8.7907e-07
8.78692e-07
8.77728e-07
8.77729e-07
8.77728e-07
8.78843e-07
8.791e-07
8.7964e-07
8.7907e-07
8.78653e-07
8.77729e-07
8.77731e-07
8.7773e-07
8.77731e-07
8.77729e-07
8.7882e-07
8.79097e-07
8.79642e-07
8.79605e-07
8.78692e-07
8.77729e-07
8.77731e-07
8.77731e-07
8.77732e-07
8.77731e-07
8.77731e-07
8.77729e-07
8.78846e-07
8.79185e-07
8.79645e-07
8.78989e-07
8.77728e-07
8.77731e-07
8.77731e-07
8.77733e-07
8.77732e-07
8.77733e-07
8.77731e-07
8.77731e-07
8.77728e-07
8.79262e-07
8.7981e-07
8.78933e-07
8.77729e-07
8.7773e-07
8.77732e-07
8.77732e-07
8.77733e-07
8.77732e-07
8.77732e-07
8.7773e-07
8.77729e-07
8.79259e-07
8.79833e-07
8.78979e-07
8.77728e-07
8.77731e-07
8.77731e-07
8.77733e-07
8.77732e-07
8.77733e-07
8.77731e-07
8.77731e-07
8.77728e-07
8.79258e-07
8.79832e-07
8.79636e-07
8.78843e-07
8.77729e-07
8.77731e-07
8.77731e-07
8.77732e-07
8.77731e-07
8.77731e-07
8.77729e-07
8.79066e-07
8.79242e-07
8.79788e-07
8.79638e-07
8.791e-07
8.7882e-07
8.77729e-07
8.77731e-07
8.7773e-07
8.77731e-07
8.77729e-07
8.79034e-07
8.79162e-07
8.79271e-07
8.7964e-07
8.79097e-07
8.78846e-07
8.77728e-07
8.77729e-07
8.77728e-07
8.79066e-07
8.79162e-07
8.79247e-07
8.79769e-07
8.79642e-07
8.79185e-07
8.79262e-07
8.79259e-07
8.79258e-07
8.79242e-07
8.79271e-07
8.79769e-07
8.79645e-07
8.7981e-07
8.79833e-07
8.79832e-07
8.79788e-07
8.71595e-07
8.70979e-07
8.70923e-07
8.7097e-07
8.71626e-07
8.71629e-07
8.716e-07
8.71061e-07
8.70682e-07
8.69719e-07
8.69719e-07
8.69719e-07
8.70834e-07
8.7109e-07
8.7163e-07
8.71061e-07
8.70643e-07
8.69719e-07
8.69721e-07
8.6972e-07
8.69721e-07
8.69719e-07
8.70811e-07
8.71087e-07
8.71633e-07
8.71595e-07
8.70682e-07
8.69719e-07
8.69721e-07
8.6972e-07
8.69721e-07
8.6972e-07
8.6972e-07
8.69719e-07
8.70837e-07
8.71176e-07
8.71635e-07
8.70979e-07
8.69719e-07
8.69721e-07
8.6972e-07
8.69722e-07
8.69721e-07
8.69722e-07
8.6972e-07
8.69721e-07
8.69718e-07
8.71252e-07
8.718e-07
8.70923e-07
8.6972e-07
8.6972e-07
8.69721e-07
8.69721e-07
8.69721e-07
8.69721e-07
8.69721e-07
8.6972e-07
8.69719e-07
8.71249e-07
8.71823e-07
8.7097e-07
8.69719e-07
8.69721e-07
8.6972e-07
8.69722e-07
8.69721e-07
8.69722e-07
8.6972e-07
8.69721e-07
8.69718e-07
8.71248e-07
8.71823e-07
8.71626e-07
8.70834e-07
8.69719e-07
8.6972e-07
8.6972e-07
8.69721e-07
8.6972e-07
8.6972e-07
8.69719e-07
8.71057e-07
8.71232e-07
8.71779e-07
8.71629e-07
8.7109e-07
8.70811e-07
8.69719e-07
8.69721e-07
8.6972e-07
8.69721e-07
8.69719e-07
8.71024e-07
8.71152e-07
8.71261e-07
8.7163e-07
8.71087e-07
8.70837e-07
8.69718e-07
8.69719e-07
8.69718e-07
8.71057e-07
8.71152e-07
8.71237e-07
8.71759e-07
8.71633e-07
8.71176e-07
8.71252e-07
8.71249e-07
8.71248e-07
8.71232e-07
8.71261e-07
8.71759e-07
8.71635e-07
8.718e-07
8.71823e-07
8.71823e-07
8.71779e-07
8.63586e-07
8.6297e-07
8.62914e-07
8.6296e-07
8.63617e-07
8.63619e-07
8.63591e-07
8.63051e-07
8.62673e-07
8.61709e-07
8.6171e-07
8.61709e-07
8.62824e-07
8.63081e-07
8.63621e-07
8.63051e-07
8.62634e-07
8.61709e-07
8.61711e-07
8.6171e-07
8.61712e-07
8.61709e-07
8.62801e-07
8.63078e-07
8.63623e-07
8.63586e-07
8.62673e-07
8.61709e-07
8.6171e-07
8.6171e-07
8.6171e-07
8.6171e-07
8.6171e-07
8.61709e-07
8.62827e-07
8.63166e-07
8.63626e-07
8.6297e-07
8.61709e-07
8.61712e-07
8.6171e-07
8.61712e-07
8.6171e-07
8.61712e-07
8.6171e-07
8.61711e-07
8.61709e-07
8.63242e-07
8.6379e-07
8.62914e-07
8.6171e-07
8.6171e-07
8.6171e-07
8.6171e-07
8.61711e-07
8.6171e-07
8.6171e-07
8.6171e-07
8.61709e-07
8.6324e-07
8.63814e-07
8.6296e-07
8.61709e-07
8.61712e-07
8.6171e-07
8.61712e-07
8.6171e-07
8.61712e-07
8.6171e-07
8.61711e-07
8.61709e-07
8.63238e-07
8.63813e-07
8.63617e-07
8.62824e-07
8.61709e-07
8.6171e-07
8.6171e-07
8.6171e-07
8.6171e-07
8.6171e-07
8.61709e-07
8.63047e-07
8.63223e-07
8.63769e-07
8.63619e-07
8.63081e-07
8.62801e-07
8.61709e-07
8.61711e-07
8.6171e-07
8.61712e-07
8.61709e-07
8.63015e-07
8.63142e-07
8.63252e-07
8.63621e-07
8.63078e-07
8.62827e-07
8.61709e-07
8.6171e-07
8.61709e-07
8.63047e-07
8.63142e-07
8.63228e-07
8.6375e-07
8.63623e-07
8.63166e-07
8.63242e-07
8.6324e-07
8.63238e-07
8.63223e-07
8.63251e-07
8.6375e-07
8.63626e-07
8.6379e-07
8.63814e-07
8.63813e-07
8.63769e-07
8.55576e-07
8.5496e-07
8.54904e-07
8.54951e-07
8.55607e-07
8.5561e-07
8.55581e-07
8.55042e-07
8.54663e-07
8.53699e-07
8.537e-07
8.53699e-07
8.54814e-07
8.55071e-07
8.55611e-07
8.55042e-07
8.54624e-07
8.537e-07
8.53702e-07
8.537e-07
8.53702e-07
8.537e-07
8.54791e-07
8.55068e-07
8.55614e-07
8.55576e-07
8.54663e-07
8.537e-07
8.53701e-07
8.537e-07
8.537e-07
8.537e-07
8.53701e-07
8.537e-07
8.54817e-07
8.55156e-07
8.55616e-07
8.5496e-07
8.53699e-07
8.53702e-07
8.537e-07
8.53702e-07
8.537e-07
8.53702e-07
8.537e-07
8.53702e-07
8.53699e-07
8.55233e-07
8.55781e-07
8.54904e-07
8.537e-07
8.537e-07
8.53701e-07
8.537e-07
8.53701e-07
8.537e-07
8.537e-07
8.537e-07
8.537e-07
8.5523e-07
8.55804e-07
8.54951e-07
8.53699e-07
8.53702e-07
8.537e-07
8.53702e-07
8.537e-07
8.53702e-07
8.537e-07
8.53702e-07
8.53699e-07
8.55229e-07
8.55804e-07
8.55607e-07
8.54814e-07
8.537e-07
8.53701e-07
8.537e-07
8.53701e-07
8.537e-07
8.53701e-07
8.537e-07
8.55037e-07
8.55213e-07
8.55759e-07
8.5561e-07
8.55071e-07
8.54791e-07
8.537e-07
8.53702e-07
8.537e-07
8.53702e-07
8.53699e-07
8.55004e-07
8.55133e-07
8.55242e-07
8.55611e-07
8.55068e-07
8.54817e-07
8.53699e-07
8.537e-07
8.53699e-07
8.55037e-07
8.55133e-07
8.55218e-07
8.5574e-07
8.55614e-07
8.55156e-07
8.55233e-07
8.5523e-07
8.55229e-07
8.55213e-07
8.55242e-07
8.5574e-07
8.55616e-07
8.55781e-07
8.55804e-07
8.55804e-07
8.55759e-07
8.47566e-07
8.4695e-07
8.46894e-07
8.46941e-07
8.47597e-07
8.476e-07
8.47571e-07
8.47032e-07
8.46653e-07
8.45689e-07
8.4569e-07
8.45689e-07
8.46805e-07
8.47061e-07
8.47601e-07
8.47032e-07
8.46614e-07
8.4569e-07
8.45692e-07
8.4569e-07
8.45692e-07
8.4569e-07
8.46782e-07
8.47059e-07
8.47604e-07
8.47566e-07
8.46653e-07
8.4569e-07
8.45691e-07
8.4569e-07
8.45691e-07
8.4569e-07
8.45691e-07
8.4569e-07
8.46808e-07
8.47147e-07
8.47607e-07
8.4695e-07
8.45689e-07
8.45692e-07
8.4569e-07
8.45692e-07
8.4569e-07
8.45692e-07
8.4569e-07
8.45692e-07
8.45689e-07
8.47223e-07
8.47771e-07
8.46894e-07
8.4569e-07
8.4569e-07
8.45691e-07
8.4569e-07
8.45691e-07
8.4569e-07
8.45691e-07
8.4569e-07
8.4569e-07
8.47221e-07
8.47794e-07
8.46941e-07
8.45689e-07
8.45692e-07
8.4569e-07
8.45692e-07
8.4569e-07
8.45692e-07
8.4569e-07
8.45692e-07
8.45689e-07
8.47219e-07
8.47794e-07
8.47597e-07
8.46805e-07
8.4569e-07
8.45691e-07
8.4569e-07
8.45691e-07
8.4569e-07
8.45691e-07
8.4569e-07
8.47028e-07
8.47203e-07
8.4775e-07
8.476e-07
8.47061e-07
8.46782e-07
8.4569e-07
8.45692e-07
8.4569e-07
8.45692e-07
8.4569e-07
8.46995e-07
8.47123e-07
8.47232e-07
8.47601e-07
8.47059e-07
8.46808e-07
8.45689e-07
8.4569e-07
8.45689e-07
8.47028e-07
8.47123e-07
8.47209e-07
8.47731e-07
8.47604e-07
8.47147e-07
8.47223e-07
8.47221e-07
8.47219e-07
8.47203e-07
8.47232e-07
8.47731e-07
8.47606e-07
8.47771e-07
8.47794e-07
8.47794e-07
8.4775e-07
8.39557e-07
8.38941e-07
8.38885e-07
8.38931e-07
8.39588e-07
8.3959e-07
8.39561e-07
8.39022e-07
8.38644e-07
8.3768e-07
8.37681e-07
8.3768e-07
8.38795e-07
8.39052e-07
8.39592e-07
8.39022e-07
8.38604e-07
8.3768e-07
8.37682e-07
8.37681e-07
8.37682e-07
8.3768e-07
8.38772e-07
8.39049e-07
8.39594e-07
8.39557e-07
8.38644e-07
8.3768e-07
8.37681e-07
8.3768e-07
8.37681e-07
8.3768e-07
8.37681e-07
8.3768e-07
8.38798e-07
8.39137e-07
8.39597e-07
8.38941e-07
8.3768e-07
8.37682e-07
8.3768e-07
8.37682e-07
8.37681e-07
8.37682e-07
8.3768e-07
8.37682e-07
8.3768e-07
8.39214e-07
8.39761e-07
8.38885e-07
8.37681e-07
8.37681e-07
8.37681e-07
8.37681e-07
8.37681e-07
8.37681e-07
8.37681e-07
8.37681e-07
8.37681e-07
8.39211e-07
8.39785e-07
8.38931e-07
8.3768e-07
8.37682e-07
8.3768e-07
8.37682e-07
8.37681e-07
8.37682e-07
8.3768e-07
8.37682e-07
8.3768e-07
8.3921e-07
8.39784e-07
8.39588e-07
8.38795e-07
8.3768e-07
8.37681e-07
8.3768e-07
8.37681e-07
8.3768e-07
8.37681e-07
8.3768e-07
8.39018e-07
8.39194e-07
8.3974e-07
8.3959e-07
8.39052e-07
8.38772e-07
8.3768e-07
8.37682e-07
8.37681e-07
8.37682e-07
8.3768e-07
8.38985e-07
8.39114e-07
8.39223e-07
8.39592e-07
8.39049e-07
8.38798e-07
8.3768e-07
8.37681e-07
8.3768e-07
8.39018e-07
8.39114e-07
8.39199e-07
8.39721e-07
8.39594e-07
8.39137e-07
8.39214e-07
8.39211e-07
8.3921e-07
8.39194e-07
8.39223e-07
8.39721e-07
8.39597e-07
8.39761e-07
8.39785e-07
8.39784e-07
8.3974e-07
8.31547e-07
8.30931e-07
8.30875e-07
8.30922e-07
8.31578e-07
8.31581e-07
8.31552e-07
8.31013e-07
8.30634e-07
8.2967e-07
8.29671e-07
8.2967e-07
8.30786e-07
8.31042e-07
8.31582e-07
8.31013e-07
8.30595e-07
8.29671e-07
8.29672e-07
8.29671e-07
8.29672e-07
8.29671e-07
8.30762e-07
8.31039e-07
8.31585e-07
8.31547e-07
8.30634e-07
8.29671e-07
8.29671e-07
8.29671e-07
8.29671e-07
8.29671e-07
8.29671e-07
8.29671e-07
8.30788e-07
8.31127e-07
8.31587e-07
8.30931e-07
8.2967e-07
8.29673e-07
8.29671e-07
8.29672e-07
8.29671e-07
8.29672e-07
8.29671e-07
8.29672e-07
8.2967e-07
8.31204e-07
8.31752e-07
8.30875e-07
8.29671e-07
8.29671e-07
8.29671e-07
8.29671e-07
8.29671e-07
8.29671e-07
8.29671e-07
8.29671e-07
8.29671e-07
8.31201e-07
8.31775e-07
8.30922e-07
8.2967e-07
8.29672e-07
8.29671e-07
8.29672e-07
8.29671e-07
8.29672e-07
8.29671e-07
8.29672e-07
8.2967e-07
8.312e-07
8.31775e-07
8.31578e-07
8.30786e-07
8.29671e-07
8.29671e-07
8.29671e-07
8.29671e-07
8.29671e-07
8.29671e-07
8.2967e-07
8.31009e-07
8.31184e-07
8.31731e-07
8.31581e-07
8.31042e-07
8.30762e-07
8.29671e-07
8.29672e-07
8.29671e-07
8.29672e-07
8.2967e-07
8.30976e-07
8.31104e-07
8.31213e-07
8.31582e-07
8.31039e-07
8.30788e-07
8.2967e-07
8.29671e-07
8.2967e-07
8.31009e-07
8.31104e-07
8.31189e-07
8.31711e-07
8.31585e-07
8.31127e-07
8.31204e-07
8.31201e-07
8.312e-07
8.31184e-07
8.31213e-07
8.31711e-07
8.31587e-07
8.31752e-07
8.31775e-07
8.31775e-07
8.31731e-07
8.23537e-07
8.22922e-07
8.22865e-07
8.22912e-07
8.23568e-07
8.23571e-07
8.23543e-07
8.23003e-07
8.22624e-07
8.2166e-07
8.21661e-07
8.2166e-07
8.22776e-07
8.23033e-07
8.23572e-07
8.23003e-07
8.22585e-07
8.21661e-07
8.21663e-07
8.21661e-07
8.21663e-07
8.21661e-07
8.22753e-07
8.2303e-07
8.23575e-07
8.23537e-07
8.22625e-07
8.21661e-07
8.21662e-07
8.21661e-07
8.21662e-07
8.21661e-07
8.21662e-07
8.21661e-07
8.22779e-07
8.23118e-07
8.23578e-07
8.22922e-07
8.2166e-07
8.21663e-07
8.21661e-07
8.21663e-07
8.21661e-07
8.21663e-07
8.21661e-07
8.21663e-07
8.2166e-07
8.23194e-07
8.23742e-07
8.22866e-07
8.21661e-07
8.21661e-07
8.21662e-07
8.21661e-07
8.21662e-07
8.21661e-07
8.21662e-07
8.21661e-07
8.21661e-07
8.23192e-07
8.23766e-07
8.22912e-07
8.2166e-07
8.21663e-07
8.21661e-07
8.21663e-07
8.21661e-07
8.21663e-07
8.21661e-07
8.21663e-07
8.2166e-07
8.2319e-07
8.23765e-07
8.23568e-07
8.22776e-07
8.21661e-07
8.21662e-07
8.21661e-07
8.21662e-07
8.21661e-07
8.21662e-07
8.21661e-07
8.22999e-07
8.23174e-07
8.23721e-07
8.23571e-07
8.23033e-07
8.22753e-07
8.21661e-07
8.21663e-07
8.21661e-07
8.21663e-07
8.21661e-07
8.22966e-07
8.23094e-07
8.23203e-07
8.23572e-07
8.2303e-07
8.22779e-07
8.2166e-07
8.21661e-07
8.2166e-07
8.22999e-07
8.23094e-07
8.2318e-07
8.23702e-07
8.23575e-07
8.23118e-07
8.23194e-07
8.23192e-07
8.2319e-07
8.23174e-07
8.23203e-07
8.23702e-07
8.23578e-07
8.23742e-07
8.23766e-07
8.23765e-07
8.23721e-07
8.15528e-07
8.14912e-07
8.14856e-07
8.14902e-07
8.15559e-07
8.15561e-07
8.15533e-07
8.14994e-07
8.14615e-07
8.13651e-07
8.13652e-07
8.13651e-07
8.14766e-07
8.15023e-07
8.15563e-07
8.14994e-07
8.14576e-07
8.13651e-07
8.13653e-07
8.13652e-07
8.13653e-07
8.13651e-07
8.14743e-07
8.1502e-07
8.15565e-07
8.15528e-07
8.14615e-07
8.13651e-07
8.13652e-07
8.13651e-07
8.13652e-07
8.13651e-07
8.13652e-07
8.13651e-07
8.14769e-07
8.15108e-07
8.15568e-07
8.14912e-07
8.13651e-07
8.13653e-07
8.13651e-07
8.13653e-07
8.13651e-07
8.13653e-07
8.13651e-07
8.13653e-07
8.13651e-07
8.15185e-07
8.15732e-07
8.14856e-07
8.13652e-07
8.13652e-07
8.13652e-07
8.13651e-07
8.13652e-07
8.13651e-07
8.13652e-07
8.13652e-07
8.13652e-07
8.15182e-07
8.15756e-07
8.14902e-07
8.13651e-07
8.13653e-07
8.13651e-07
8.13653e-07
8.13651e-07
8.13653e-07
8.13651e-07
8.13653e-07
8.13651e-07
8.15181e-07
8.15755e-07
8.15559e-07
8.14766e-07
8.13651e-07
8.13652e-07
8.13651e-07
8.13652e-07
8.13651e-07
8.13652e-07
8.13651e-07
8.14989e-07
8.15165e-07
8.15711e-07
8.15561e-07
8.15023e-07
8.14743e-07
8.13651e-07
8.13653e-07
8.13652e-07
8.13653e-07
8.13651e-07
8.14956e-07
8.15085e-07
8.15194e-07
8.15563e-07
8.1502e-07
8.14769e-07
8.13651e-07
8.13652e-07
8.13651e-07
8.14989e-07
8.15085e-07
8.1517e-07
8.15692e-07
8.15565e-07
8.15108e-07
8.15185e-07
8.15182e-07
8.15181e-07
8.15165e-07
8.15194e-07
8.15692e-07
8.15568e-07
8.15732e-07
8.15756e-07
8.15755e-07
8.15711e-07
8.07518e-07
8.06902e-07
8.06846e-07
8.06893e-07
8.07549e-07
8.07552e-07
8.07523e-07
8.06984e-07
8.06605e-07
8.05641e-07
8.05642e-07
8.05641e-07
8.06757e-07
8.07013e-07
8.07553e-07
8.06984e-07
8.06566e-07
8.05642e-07
8.05643e-07
8.05642e-07
8.05643e-07
8.05642e-07
8.06733e-07
8.0701e-07
8.07556e-07
8.07518e-07
8.06605e-07
8.05642e-07
8.05643e-07
8.05642e-07
8.05642e-07
8.05642e-07
8.05642e-07
8.05642e-07
8.06759e-07
8.07098e-07
8.07558e-07
8.06902e-07
8.05641e-07
8.05643e-07
8.05642e-07
8.05643e-07
8.05642e-07
8.05643e-07
8.05642e-07
8.05643e-07
8.05641e-07
8.07175e-07
8.07723e-07
8.06846e-07
8.05642e-07
8.05642e-07
8.05642e-07
8.05642e-07
8.05642e-07
8.05642e-07
8.05642e-07
8.05642e-07
8.05642e-07
8.07172e-07
8.07746e-07
8.06893e-07
8.05641e-07
8.05643e-07
8.05642e-07
8.05643e-07
8.05642e-07
8.05643e-07
8.05642e-07
8.05643e-07
8.05641e-07
8.07171e-07
8.07746e-07
8.07549e-07
8.06757e-07
8.05642e-07
8.05642e-07
8.05642e-07
8.05642e-07
8.05642e-07
8.05642e-07
8.05642e-07
8.0698e-07
8.07155e-07
8.07702e-07
8.07552e-07
8.07013e-07
8.06733e-07
8.05642e-07
8.05643e-07
8.05642e-07
8.05643e-07
8.05642e-07
8.06947e-07
8.07075e-07
8.07184e-07
8.07553e-07
8.0701e-07
8.06759e-07
8.05641e-07
8.05642e-07
8.05641e-07
8.0698e-07
8.07075e-07
8.0716e-07
8.07682e-07
8.07556e-07
8.07098e-07
8.07175e-07
8.07172e-07
8.07171e-07
8.07155e-07
8.07184e-07
8.07682e-07
8.07558e-07
8.07723e-07
8.07746e-07
8.07746e-07
8.07702e-07
7.99508e-07
7.98893e-07
7.98836e-07
7.98883e-07
7.99539e-07
7.99542e-07
7.99513e-07
7.98974e-07
7.98595e-07
7.97631e-07
7.97632e-07
7.97631e-07
7.98747e-07
7.99004e-07
7.99543e-07
7.98974e-07
7.98556e-07
7.97632e-07
7.97634e-07
7.97632e-07
7.97634e-07
7.97632e-07
7.98724e-07
7.99001e-07
7.99546e-07
7.99508e-07
7.98595e-07
7.97632e-07
7.97633e-07
7.97632e-07
7.97633e-07
7.97632e-07
7.97633e-07
7.97632e-07
7.9875e-07
7.99089e-07
7.99549e-07
7.98892e-07
7.97631e-07
7.97634e-07
7.97632e-07
7.97634e-07
7.97632e-07
7.97634e-07
7.97632e-07
7.97634e-07
7.97631e-07
7.99165e-07
7.99713e-07
7.98836e-07
7.97632e-07
7.97632e-07
7.97633e-07
7.97632e-07
7.97633e-07
7.97632e-07
7.97633e-07
7.97632e-07
7.97632e-07
7.99163e-07
7.99737e-07
7.98883e-07
7.97631e-07
7.97634e-07
7.97632e-07
7.97634e-07
7.97632e-07
7.97634e-07
7.97632e-07
7.97634e-07
7.97631e-07
7.99161e-07
7.99736e-07
7.99539e-07
7.98747e-07
7.97632e-07
7.97633e-07
7.97632e-07
7.97633e-07
7.97632e-07
7.97633e-07
7.97632e-07
7.9897e-07
7.99146e-07
7.99692e-07
7.99542e-07
7.99004e-07
7.98724e-07
7.97632e-07
7.97634e-07
7.97632e-07
7.97634e-07
7.97632e-07
7.98937e-07
7.99065e-07
7.99175e-07
7.99543e-07
7.99001e-07
7.9875e-07
7.97631e-07
7.97632e-07
7.97631e-07
7.9897e-07
7.99066e-07
7.99151e-07
7.99673e-07
7.99546e-07
7.99089e-07
7.99165e-07
7.99163e-07
7.99161e-07
7.99146e-07
7.99175e-07
7.99673e-07
7.99549e-07
7.99713e-07
7.99737e-07
7.99736e-07
7.99692e-07
7.91499e-07
7.90883e-07
7.90827e-07
7.90873e-07
7.9153e-07
7.91532e-07
7.91504e-07
7.90964e-07
7.90586e-07
7.89622e-07
7.89623e-07
7.89622e-07
7.90737e-07
7.90994e-07
7.91534e-07
7.90965e-07
7.90547e-07
7.89622e-07
7.89624e-07
7.89623e-07
7.89624e-07
7.89622e-07
7.90714e-07
7.90991e-07
7.91536e-07
7.91499e-07
7.90586e-07
7.89622e-07
7.89623e-07
7.89622e-07
7.89623e-07
7.89622e-07
7.89623e-07
7.89622e-07
7.9074e-07
7.91079e-07
7.91539e-07
7.90883e-07
7.89622e-07
7.89624e-07
7.89622e-07
7.89624e-07
7.89623e-07
7.89624e-07
7.89622e-07
7.89624e-07
7.89622e-07
7.91156e-07
7.91703e-07
7.90827e-07
7.89623e-07
7.89623e-07
7.89623e-07
7.89623e-07
7.89623e-07
7.89623e-07
7.89623e-07
7.89623e-07
7.89623e-07
7.91153e-07
7.91727e-07
7.90873e-07
7.89622e-07
7.89624e-07
7.89622e-07
7.89624e-07
7.89623e-07
7.89624e-07
7.89622e-07
7.89624e-07
7.89622e-07
7.91152e-07
7.91726e-07
7.9153e-07
7.90737e-07
7.89622e-07
7.89623e-07
7.89622e-07
7.89623e-07