/*--------------------------------*- C++ -*----------------------------------*\
| =========                 |                                                 |
| \\      /  F ield         | OpenFOAM: The Open Source CFD Toolbox           |
|  \\    /   O peration     | Version:  v2012                                 |
|   \\  /    A nd           | Website:  www.openfoam.com                      |
|    \\/     M anipulation  |                                                 |
\*---------------------------------------------------------------------------*/
FoamFile
{
    version     2.0;
    format      ascii;
    class       volScalarField;
    location    "16";
    object      p;
}
// * * * * * * * * * * * * * * * * * * * * * * * * * * * * * * * * * * * * * //

dimensions      [0 2 -2 0 0 0 0];


internalField   nonuniform List<scalar> 
292667
(
1.70118e-06
1.68808e-06
1.68691e-06
1.68703e-06
1.6887e-06
1.70221e-06
1.68834e-06
1.6842e-06
1.68185e-06
1.6809e-06
1.68103e-06
1.68229e-06
1.68505e-06
1.68964e-06
1.68834e-06
1.68301e-06
1.67984e-06
1.67811e-06
1.67738e-06
1.67748e-06
1.67843e-06
1.68046e-06
1.68411e-06
1.69002e-06
1.70118e-06
1.6842e-06
1.67984e-06
1.67731e-06
1.6759e-06
1.67529e-06
1.67538e-06
1.67617e-06
1.67781e-06
1.68071e-06
1.6857e-06
1.70189e-06
1.68808e-06
1.68185e-06
1.67811e-06
1.6759e-06
1.67465e-06
1.6741e-06
1.67418e-06
1.67489e-06
1.67634e-06
1.67886e-06
1.68316e-06
1.69367e-06
1.68691e-06
1.6809e-06
1.67738e-06
1.67529e-06
1.6741e-06
1.67359e-06
1.67366e-06
1.67433e-06
1.67571e-06
1.67809e-06
1.68214e-06
1.69109e-06
1.68703e-06
1.68103e-06
1.67748e-06
1.67538e-06
1.67418e-06
1.67366e-06
1.67373e-06
1.67441e-06
1.6758e-06
1.67819e-06
1.68227e-06
1.6914e-06
1.6887e-06
1.68229e-06
1.67843e-06
1.67617e-06
1.67489e-06
1.67433e-06
1.67441e-06
1.67513e-06
1.67662e-06
1.67921e-06
1.68364e-06
1.69414e-06
1.70221e-06
1.68505e-06
1.68046e-06
1.67781e-06
1.67634e-06
1.67571e-06
1.6758e-06
1.67662e-06
1.67834e-06
1.68138e-06
1.68658e-06
1.70221e-06
1.68964e-06
1.68411e-06
1.68071e-06
1.67886e-06
1.67809e-06
1.67819e-06
1.67921e-06
1.68138e-06
1.68528e-06
1.69454e-06
1.69002e-06
1.6857e-06
1.68316e-06
1.68214e-06
1.68227e-06
1.68364e-06
1.68658e-06
1.69454e-06
1.70189e-06
1.69367e-06
1.69109e-06
1.6914e-06
1.69414e-06
1.70221e-06
1.66347e-06
1.66191e-06
1.66187e-06
1.66191e-06
1.66326e-06
1.66328e-06
1.66355e-06
1.66227e-06
1.66175e-06
1.65949e-06
1.65944e-06
1.65948e-06
1.66179e-06
1.66212e-06
1.66339e-06
1.66227e-06
1.66174e-06
1.65958e-06
1.65942e-06
1.65944e-06
1.65942e-06
1.65958e-06
1.66171e-06
1.66211e-06
1.66336e-06
1.66347e-06
1.66175e-06
1.65958e-06
1.65946e-06
1.65946e-06
1.65945e-06
1.65946e-06
1.65946e-06
1.65958e-06
1.66171e-06
1.66217e-06
1.66355e-06
1.66191e-06
1.65949e-06
1.65942e-06
1.65946e-06
1.65943e-06
1.65942e-06
1.65943e-06
1.65946e-06
1.65942e-06
1.65949e-06
1.66211e-06
1.66342e-06
1.66187e-06
1.65944e-06
1.65944e-06
1.65945e-06
1.65942e-06
1.65941e-06
1.65942e-06
1.65945e-06
1.65944e-06
1.65944e-06
1.66203e-06
1.66312e-06
1.66191e-06
1.65948e-06
1.65942e-06
1.65946e-06
1.65943e-06
1.65942e-06
1.65943e-06
1.65946e-06
1.65942e-06
1.65948e-06
1.66207e-06
1.6632e-06
1.66326e-06
1.66179e-06
1.65958e-06
1.65946e-06
1.65946e-06
1.65945e-06
1.65946e-06
1.65946e-06
1.65958e-06
1.66168e-06
1.66216e-06
1.66346e-06
1.66328e-06
1.66212e-06
1.66171e-06
1.65958e-06
1.65942e-06
1.65944e-06
1.65942e-06
1.65958e-06
1.66164e-06
1.66202e-06
1.66223e-06
1.66339e-06
1.66211e-06
1.66171e-06
1.65949e-06
1.65944e-06
1.65948e-06
1.66168e-06
1.66202e-06
1.66232e-06
1.66356e-06
1.66336e-06
1.66217e-06
1.66211e-06
1.66203e-06
1.66207e-06
1.66216e-06
1.66223e-06
1.66356e-06
1.66355e-06
1.66342e-06
1.66312e-06
1.6632e-06
1.66346e-06
1.64922e-06
1.64777e-06
1.6477e-06
1.64774e-06
1.64907e-06
1.64922e-06
1.6493e-06
1.648e-06
1.64745e-06
1.64516e-06
1.64515e-06
1.64516e-06
1.64752e-06
1.6479e-06
1.64913e-06
1.648e-06
1.64746e-06
1.64523e-06
1.6452e-06
1.64523e-06
1.6452e-06
1.64523e-06
1.64747e-06
1.64787e-06
1.64914e-06
1.64922e-06
1.64745e-06
1.64523e-06
1.64522e-06
1.64529e-06
1.6453e-06
1.64529e-06
1.64522e-06
1.64523e-06
1.64745e-06
1.64796e-06
1.64928e-06
1.64777e-06
1.64516e-06
1.6452e-06
1.64529e-06
1.64532e-06
1.64533e-06
1.64532e-06
1.64529e-06
1.6452e-06
1.64516e-06
1.64788e-06
1.6493e-06
1.6477e-06
1.64515e-06
1.64523e-06
1.6453e-06
1.64533e-06
1.64534e-06
1.64533e-06
1.6453e-06
1.64523e-06
1.64515e-06
1.64782e-06
1.64924e-06
1.64774e-06
1.64516e-06
1.6452e-06
1.64529e-06
1.64532e-06
1.64533e-06
1.64532e-06
1.64529e-06
1.6452e-06
1.64516e-06
1.64785e-06
1.64924e-06
1.64907e-06
1.64752e-06
1.64523e-06
1.64522e-06
1.64529e-06
1.6453e-06
1.64529e-06
1.64522e-06
1.64523e-06
1.64748e-06
1.64793e-06
1.64934e-06
1.64922e-06
1.6479e-06
1.64747e-06
1.64523e-06
1.6452e-06
1.64523e-06
1.6452e-06
1.64523e-06
1.64745e-06
1.64778e-06
1.64807e-06
1.64913e-06
1.64787e-06
1.64745e-06
1.64516e-06
1.64515e-06
1.64516e-06
1.64748e-06
1.64778e-06
1.64804e-06
1.64934e-06
1.64914e-06
1.64796e-06
1.64788e-06
1.64782e-06
1.64785e-06
1.64793e-06
1.64807e-06
1.64934e-06
1.64928e-06
1.6493e-06
1.64924e-06
1.64924e-06
1.64934e-06
1.63515e-06
1.63368e-06
1.63359e-06
1.63364e-06
1.635e-06
1.63516e-06
1.63524e-06
1.6339e-06
1.63329e-06
1.63099e-06
1.63099e-06
1.63099e-06
1.63336e-06
1.63381e-06
1.63506e-06
1.6339e-06
1.63328e-06
1.63103e-06
1.63103e-06
1.63106e-06
1.63103e-06
1.63103e-06
1.63332e-06
1.63379e-06
1.63507e-06
1.63515e-06
1.63329e-06
1.63103e-06
1.63105e-06
1.6311e-06
1.63111e-06
1.6311e-06
1.63105e-06
1.63103e-06
1.63333e-06
1.63388e-06
1.63521e-06
1.63368e-06
1.63099e-06
1.63103e-06
1.6311e-06
1.63113e-06
1.63114e-06
1.63113e-06
1.6311e-06
1.63103e-06
1.63099e-06
1.63379e-06
1.63523e-06
1.63359e-06
1.63099e-06
1.63106e-06
1.63111e-06
1.63114e-06
1.63115e-06
1.63114e-06
1.63111e-06
1.63106e-06
1.63099e-06
1.63372e-06
1.63516e-06
1.63364e-06
1.63099e-06
1.63103e-06
1.6311e-06
1.63113e-06
1.63114e-06
1.63113e-06
1.6311e-06
1.63103e-06
1.63099e-06
1.63375e-06
1.63516e-06
1.635e-06
1.63336e-06
1.63103e-06
1.63105e-06
1.6311e-06
1.63111e-06
1.6311e-06
1.63105e-06
1.63103e-06
1.63338e-06
1.63385e-06
1.63526e-06
1.63516e-06
1.63381e-06
1.63332e-06
1.63103e-06
1.63103e-06
1.63106e-06
1.63103e-06
1.63103e-06
1.63335e-06
1.6337e-06
1.63399e-06
1.63506e-06
1.63379e-06
1.63333e-06
1.63099e-06
1.63099e-06
1.63099e-06
1.63338e-06
1.6337e-06
1.63396e-06
1.63528e-06
1.63507e-06
1.63388e-06
1.63379e-06
1.63372e-06
1.63375e-06
1.63385e-06
1.63399e-06
1.63528e-06
1.63521e-06
1.63523e-06
1.63516e-06
1.63516e-06
1.63526e-06
1.62106e-06
1.61959e-06
1.61949e-06
1.61954e-06
1.62091e-06
1.62107e-06
1.62115e-06
1.6198e-06
1.61918e-06
1.61687e-06
1.61687e-06
1.61687e-06
1.61925e-06
1.61972e-06
1.62097e-06
1.6198e-06
1.61916e-06
1.61689e-06
1.6169e-06
1.61691e-06
1.6169e-06
1.61689e-06
1.6192e-06
1.6197e-06
1.62099e-06
1.62106e-06
1.61918e-06
1.61689e-06
1.61691e-06
1.61694e-06
1.61695e-06
1.61694e-06
1.61691e-06
1.61689e-06
1.61922e-06
1.6198e-06
1.62113e-06
1.61959e-06
1.61687e-06
1.6169e-06
1.61694e-06
1.61696e-06
1.61697e-06
1.61696e-06
1.61694e-06
1.6169e-06
1.61687e-06
1.6197e-06
1.62114e-06
1.61949e-06
1.61687e-06
1.61691e-06
1.61695e-06
1.61697e-06
1.61698e-06
1.61697e-06
1.61695e-06
1.61691e-06
1.61687e-06
1.61963e-06
1.62107e-06
1.61954e-06
1.61687e-06
1.6169e-06
1.61694e-06
1.61696e-06
1.61697e-06
1.61696e-06
1.61694e-06
1.6169e-06
1.61687e-06
1.61966e-06
1.62108e-06
1.62091e-06
1.61925e-06
1.61689e-06
1.61691e-06
1.61694e-06
1.61695e-06
1.61694e-06
1.61691e-06
1.61689e-06
1.61928e-06
1.61977e-06
1.62118e-06
1.62107e-06
1.61972e-06
1.6192e-06
1.61689e-06
1.6169e-06
1.61691e-06
1.6169e-06
1.61689e-06
1.61925e-06
1.61961e-06
1.61991e-06
1.62097e-06
1.6197e-06
1.61922e-06
1.61687e-06
1.61687e-06
1.61687e-06
1.61928e-06
1.61961e-06
1.61988e-06
1.6212e-06
1.62099e-06
1.6198e-06
1.6197e-06
1.61963e-06
1.61966e-06
1.61977e-06
1.61991e-06
1.6212e-06
1.62113e-06
1.62114e-06
1.62107e-06
1.62108e-06
1.62118e-06
1.60697e-06
1.6055e-06
1.6054e-06
1.60545e-06
1.60682e-06
1.60698e-06
1.60706e-06
1.60571e-06
1.60508e-06
1.60277e-06
1.60277e-06
1.60277e-06
1.60515e-06
1.60563e-06
1.60689e-06
1.60571e-06
1.60505e-06
1.60278e-06
1.60278e-06
1.60279e-06
1.60278e-06
1.60278e-06
1.6051e-06
1.60561e-06
1.6069e-06
1.60697e-06
1.60508e-06
1.60278e-06
1.60279e-06
1.60281e-06
1.60281e-06
1.60281e-06
1.60279e-06
1.60278e-06
1.60512e-06
1.60571e-06
1.60704e-06
1.6055e-06
1.60277e-06
1.60278e-06
1.60281e-06
1.60282e-06
1.60283e-06
1.60282e-06
1.60281e-06
1.60278e-06
1.60277e-06
1.60561e-06
1.60705e-06
1.6054e-06
1.60277e-06
1.60279e-06
1.60281e-06
1.60283e-06
1.60283e-06
1.60283e-06
1.60281e-06
1.60279e-06
1.60277e-06
1.60554e-06
1.60698e-06
1.60545e-06
1.60277e-06
1.60278e-06
1.60281e-06
1.60282e-06
1.60283e-06
1.60282e-06
1.60281e-06
1.60278e-06
1.60277e-06
1.60557e-06
1.60699e-06
1.60682e-06
1.60515e-06
1.60278e-06
1.60279e-06
1.60281e-06
1.60281e-06
1.60281e-06
1.60279e-06
1.60278e-06
1.60519e-06
1.60568e-06
1.60709e-06
1.60698e-06
1.60563e-06
1.6051e-06
1.60278e-06
1.60278e-06
1.60279e-06
1.60278e-06
1.60278e-06
1.60515e-06
1.60552e-06
1.60582e-06
1.60689e-06
1.60561e-06
1.60512e-06
1.60277e-06
1.60277e-06
1.60277e-06
1.60519e-06
1.60552e-06
1.60579e-06
1.60711e-06
1.6069e-06
1.60571e-06
1.60561e-06
1.60554e-06
1.60557e-06
1.60568e-06
1.60582e-06
1.60711e-06
1.60704e-06
1.60705e-06
1.60698e-06
1.60699e-06
1.60709e-06
1.59288e-06
1.5914e-06
1.59131e-06
1.59136e-06
1.59273e-06
1.59289e-06
1.59297e-06
1.59162e-06
1.59098e-06
1.58867e-06
1.58867e-06
1.58867e-06
1.59106e-06
1.59153e-06
1.59279e-06
1.59161e-06
1.59096e-06
1.58867e-06
1.58868e-06
1.58868e-06
1.58868e-06
1.58867e-06
1.59101e-06
1.59152e-06
1.59281e-06
1.59288e-06
1.59098e-06
1.58867e-06
1.58868e-06
1.58869e-06
1.58869e-06
1.58869e-06
1.58868e-06
1.58867e-06
1.59103e-06
1.59162e-06
1.59295e-06
1.5914e-06
1.58867e-06
1.58868e-06
1.58869e-06
1.5887e-06
1.5887e-06
1.5887e-06
1.58869e-06
1.58868e-06
1.58867e-06
1.59152e-06
1.59296e-06
1.59131e-06
1.58867e-06
1.58868e-06
1.58869e-06
1.5887e-06
1.58871e-06
1.5887e-06
1.58869e-06
1.58868e-06
1.58867e-06
1.59144e-06
1.59289e-06
1.59136e-06
1.58867e-06
1.58868e-06
1.58869e-06
1.5887e-06
1.5887e-06
1.5887e-06
1.58869e-06
1.58868e-06
1.58867e-06
1.59148e-06
1.5929e-06
1.59273e-06
1.59106e-06
1.58867e-06
1.58868e-06
1.58869e-06
1.58869e-06
1.58869e-06
1.58868e-06
1.58867e-06
1.5911e-06
1.59159e-06
1.593e-06
1.59289e-06
1.59153e-06
1.59101e-06
1.58867e-06
1.58868e-06
1.58868e-06
1.58868e-06
1.58867e-06
1.59106e-06
1.59143e-06
1.59173e-06
1.59279e-06
1.59152e-06
1.59103e-06
1.58867e-06
1.58867e-06
1.58867e-06
1.5911e-06
1.59143e-06
1.59169e-06
1.59302e-06
1.59281e-06
1.59162e-06
1.59152e-06
1.59144e-06
1.59148e-06
1.59159e-06
1.59173e-06
1.59302e-06
1.59295e-06
1.59296e-06
1.59289e-06
1.5929e-06
1.593e-06
1.57879e-06
1.57731e-06
1.57722e-06
1.57727e-06
1.57864e-06
1.5788e-06
1.57888e-06
1.57752e-06
1.57689e-06
1.57457e-06
1.57457e-06
1.57457e-06
1.57696e-06
1.57744e-06
1.5787e-06
1.57752e-06
1.57686e-06
1.57458e-06
1.57458e-06
1.57458e-06
1.57458e-06
1.57458e-06
1.57691e-06
1.57743e-06
1.57871e-06
1.57879e-06
1.57689e-06
1.57458e-06
1.57458e-06
1.57459e-06
1.57459e-06
1.57459e-06
1.57458e-06
1.57458e-06
1.57693e-06
1.57753e-06
1.57886e-06
1.57731e-06
1.57457e-06
1.57458e-06
1.57459e-06
1.57459e-06
1.57459e-06
1.57459e-06
1.57459e-06
1.57458e-06
1.57457e-06
1.57742e-06
1.57887e-06
1.57722e-06
1.57457e-06
1.57458e-06
1.57459e-06
1.57459e-06
1.57459e-06
1.57459e-06
1.57459e-06
1.57458e-06
1.57457e-06
1.57735e-06
1.5788e-06
1.57727e-06
1.57457e-06
1.57458e-06
1.57459e-06
1.57459e-06
1.57459e-06
1.57459e-06
1.57459e-06
1.57458e-06
1.57457e-06
1.57738e-06
1.57881e-06
1.57864e-06
1.57696e-06
1.57458e-06
1.57458e-06
1.57459e-06
1.57459e-06
1.57459e-06
1.57458e-06
1.57458e-06
1.577e-06
1.5775e-06
1.57891e-06
1.5788e-06
1.57744e-06
1.57691e-06
1.57458e-06
1.57458e-06
1.57458e-06
1.57458e-06
1.57458e-06
1.57696e-06
1.57734e-06
1.57764e-06
1.5787e-06
1.57743e-06
1.57693e-06
1.57457e-06
1.57457e-06
1.57457e-06
1.577e-06
1.57734e-06
1.5776e-06
1.57893e-06
1.57871e-06
1.57753e-06
1.57742e-06
1.57735e-06
1.57738e-06
1.5775e-06
1.57764e-06
1.57892e-06
1.57886e-06
1.57887e-06
1.5788e-06
1.57881e-06
1.57891e-06
1.5647e-06
1.56322e-06
1.56312e-06
1.56317e-06
1.56454e-06
1.56471e-06
1.56479e-06
1.56343e-06
1.5628e-06
1.56048e-06
1.56048e-06
1.56048e-06
1.56287e-06
1.56335e-06
1.56461e-06
1.56343e-06
1.56277e-06
1.56048e-06
1.56048e-06
1.56048e-06
1.56048e-06
1.56048e-06
1.56282e-06
1.56333e-06
1.56462e-06
1.5647e-06
1.5628e-06
1.56048e-06
1.56048e-06
1.56049e-06
1.56049e-06
1.56049e-06
1.56048e-06
1.56048e-06
1.56284e-06
1.56343e-06
1.56477e-06
1.56322e-06
1.56048e-06
1.56048e-06
1.56049e-06
1.56049e-06
1.56049e-06
1.56049e-06
1.56049e-06
1.56048e-06
1.56048e-06
1.56333e-06
1.56478e-06
1.56312e-06
1.56048e-06
1.56048e-06
1.56049e-06
1.56049e-06
1.56049e-06
1.56049e-06
1.56049e-06
1.56048e-06
1.56048e-06
1.56326e-06
1.56471e-06
1.56317e-06
1.56048e-06
1.56048e-06
1.56049e-06
1.56049e-06
1.56049e-06
1.56049e-06
1.56049e-06
1.56048e-06
1.56048e-06
1.56329e-06
1.56471e-06
1.56454e-06
1.56287e-06
1.56048e-06
1.56048e-06
1.56049e-06
1.56049e-06
1.56049e-06
1.56048e-06
1.56048e-06
1.56291e-06
1.5634e-06
1.56482e-06
1.56471e-06
1.56335e-06
1.56282e-06
1.56048e-06
1.56048e-06
1.56048e-06
1.56048e-06
1.56048e-06
1.56287e-06
1.56325e-06
1.56354e-06
1.56461e-06
1.56333e-06
1.56284e-06
1.56048e-06
1.56048e-06
1.56048e-06
1.56291e-06
1.56325e-06
1.56351e-06
1.56483e-06
1.56462e-06
1.56343e-06
1.56333e-06
1.56326e-06
1.56329e-06
1.5634e-06
1.56354e-06
1.56483e-06
1.56477e-06
1.56478e-06
1.56471e-06
1.56471e-06
1.56482e-06
1.55061e-06
1.54913e-06
1.54903e-06
1.54908e-06
1.55045e-06
1.55062e-06
1.5507e-06
1.54934e-06
1.5487e-06
1.54639e-06
1.54639e-06
1.54639e-06
1.54878e-06
1.54926e-06
1.55052e-06
1.54934e-06
1.54867e-06
1.54639e-06
1.54639e-06
1.54639e-06
1.54639e-06
1.54639e-06
1.54872e-06
1.54924e-06
1.55053e-06
1.55061e-06
1.5487e-06
1.54639e-06
1.54639e-06
1.54639e-06
1.54639e-06
1.54639e-06
1.54639e-06
1.54639e-06
1.54875e-06
1.54934e-06
1.55067e-06
1.54913e-06
1.54639e-06
1.54639e-06
1.54639e-06
1.54639e-06
1.54639e-06
1.54639e-06
1.54639e-06
1.54639e-06
1.54639e-06
1.54924e-06
1.55069e-06
1.54903e-06
1.54639e-06
1.54639e-06
1.54639e-06
1.54639e-06
1.54639e-06
1.54639e-06
1.54639e-06
1.54639e-06
1.54639e-06
1.54917e-06
1.55062e-06
1.54908e-06
1.54639e-06
1.54639e-06
1.54639e-06
1.54639e-06
1.54639e-06
1.54639e-06
1.54639e-06
1.54639e-06
1.54639e-06
1.5492e-06
1.55062e-06
1.55045e-06
1.54878e-06
1.54639e-06
1.54639e-06
1.54639e-06
1.54639e-06
1.54639e-06
1.54639e-06
1.54639e-06
1.54882e-06
1.54931e-06
1.55072e-06
1.55062e-06
1.54926e-06
1.54872e-06
1.54639e-06
1.54639e-06
1.54639e-06
1.54639e-06
1.54639e-06
1.54878e-06
1.54915e-06
1.54945e-06
1.55052e-06
1.54924e-06
1.54875e-06
1.54639e-06
1.54639e-06
1.54639e-06
1.54882e-06
1.54915e-06
1.54942e-06
1.55074e-06
1.55053e-06
1.54934e-06
1.54924e-06
1.54917e-06
1.5492e-06
1.54931e-06
1.54945e-06
1.55074e-06
1.55067e-06
1.55069e-06
1.55062e-06
1.55062e-06
1.55072e-06
1.53651e-06
1.53503e-06
1.53494e-06
1.53499e-06
1.53636e-06
1.53652e-06
1.5366e-06
1.53524e-06
1.53461e-06
1.53229e-06
1.53229e-06
1.53229e-06
1.53468e-06
1.53516e-06
1.53643e-06
1.53524e-06
1.53458e-06
1.53229e-06
1.53229e-06
1.53229e-06
1.53229e-06
1.53229e-06
1.53463e-06
1.53515e-06
1.53644e-06
1.53651e-06
1.53461e-06
1.53229e-06
1.53229e-06
1.5323e-06
1.5323e-06
1.5323e-06
1.53229e-06
1.53229e-06
1.53465e-06
1.53525e-06
1.53658e-06
1.53503e-06
1.53229e-06
1.53229e-06
1.5323e-06
1.5323e-06
1.5323e-06
1.5323e-06
1.5323e-06
1.53229e-06
1.53229e-06
1.53515e-06
1.53659e-06
1.53494e-06
1.53229e-06
1.53229e-06
1.5323e-06
1.5323e-06
1.5323e-06
1.5323e-06
1.5323e-06
1.53229e-06
1.53229e-06
1.53507e-06
1.53652e-06
1.53499e-06
1.53229e-06
1.53229e-06
1.5323e-06
1.5323e-06
1.5323e-06
1.5323e-06
1.5323e-06
1.53229e-06
1.53229e-06
1.53511e-06
1.53653e-06
1.53636e-06
1.53468e-06
1.53229e-06
1.53229e-06
1.5323e-06
1.5323e-06
1.5323e-06
1.53229e-06
1.53229e-06
1.53472e-06
1.53522e-06
1.53663e-06
1.53652e-06
1.53516e-06
1.53463e-06
1.53229e-06
1.53229e-06
1.53229e-06
1.53229e-06
1.53229e-06
1.53468e-06
1.53506e-06
1.53536e-06
1.53643e-06
1.53515e-06
1.53465e-06
1.53229e-06
1.53229e-06
1.53229e-06
1.53472e-06
1.53506e-06
1.53533e-06
1.53665e-06
1.53644e-06
1.53525e-06
1.53515e-06
1.53507e-06
1.53511e-06
1.53522e-06
1.53536e-06
1.53665e-06
1.53658e-06
1.53659e-06
1.53652e-06
1.53653e-06
1.53663e-06
1.52242e-06
1.52094e-06
1.52085e-06
1.5209e-06
1.52227e-06
1.52243e-06
1.52251e-06
1.52115e-06
1.52052e-06
1.5182e-06
1.5182e-06
1.5182e-06
1.52059e-06
1.52107e-06
1.52233e-06
1.52115e-06
1.52049e-06
1.5182e-06
1.5182e-06
1.5182e-06
1.5182e-06
1.5182e-06
1.52054e-06
1.52106e-06
1.52234e-06
1.52242e-06
1.52052e-06
1.5182e-06
1.5182e-06
1.5182e-06
1.5182e-06
1.5182e-06
1.5182e-06
1.5182e-06
1.52056e-06
1.52115e-06
1.52249e-06
1.52094e-06
1.5182e-06
1.5182e-06
1.5182e-06
1.5182e-06
1.5182e-06
1.5182e-06
1.5182e-06
1.5182e-06
1.5182e-06
1.52105e-06
1.5225e-06
1.52085e-06
1.5182e-06
1.5182e-06
1.5182e-06
1.5182e-06
1.5182e-06
1.5182e-06
1.5182e-06
1.5182e-06
1.5182e-06
1.52098e-06
1.52243e-06
1.5209e-06
1.5182e-06
1.5182e-06
1.5182e-06
1.5182e-06
1.5182e-06
1.5182e-06
1.5182e-06
1.5182e-06
1.5182e-06
1.52101e-06
1.52244e-06
1.52227e-06
1.52059e-06
1.5182e-06
1.5182e-06
1.5182e-06
1.5182e-06
1.5182e-06
1.5182e-06
1.5182e-06
1.52063e-06
1.52112e-06
1.52254e-06
1.52243e-06
1.52107e-06
1.52054e-06
1.5182e-06
1.5182e-06
1.5182e-06
1.5182e-06
1.5182e-06
1.52059e-06
1.52097e-06
1.52127e-06
1.52233e-06
1.52106e-06
1.52056e-06
1.5182e-06
1.5182e-06
1.5182e-06
1.52063e-06
1.52097e-06
1.52123e-06
1.52255e-06
1.52234e-06
1.52115e-06
1.52105e-06
1.52098e-06
1.52101e-06
1.52112e-06
1.52127e-06
1.52255e-06
1.52249e-06
1.5225e-06
1.52243e-06
1.52244e-06
1.52254e-06
1.50833e-06
1.50685e-06
1.50675e-06
1.5068e-06
1.50817e-06
1.50834e-06
1.50842e-06
1.50706e-06
1.50643e-06
1.50411e-06
1.50411e-06
1.50411e-06
1.5065e-06
1.50698e-06
1.50824e-06
1.50706e-06
1.50639e-06
1.50411e-06
1.50411e-06
1.50411e-06
1.50411e-06
1.50411e-06
1.50645e-06
1.50696e-06
1.50825e-06
1.50833e-06
1.50643e-06
1.50411e-06
1.50411e-06
1.50411e-06
1.50411e-06
1.50411e-06
1.50411e-06
1.50411e-06
1.50647e-06
1.50706e-06
1.5084e-06
1.50685e-06
1.50411e-06
1.50411e-06
1.50411e-06
1.50411e-06
1.50411e-06
1.50411e-06
1.50411e-06
1.50411e-06
1.50411e-06
1.50696e-06
1.50841e-06
1.50675e-06
1.50411e-06
1.50411e-06
1.50411e-06
1.50411e-06
1.50411e-06
1.50411e-06
1.50411e-06
1.50411e-06
1.50411e-06
1.50689e-06
1.50834e-06
1.5068e-06
1.50411e-06
1.50411e-06
1.50411e-06
1.50411e-06
1.50411e-06
1.50411e-06
1.50411e-06
1.50411e-06
1.50411e-06
1.50692e-06
1.50834e-06
1.50817e-06
1.5065e-06
1.50411e-06
1.50411e-06
1.50411e-06
1.50411e-06
1.50411e-06
1.50411e-06
1.50411e-06
1.50654e-06
1.50703e-06
1.50845e-06
1.50834e-06
1.50698e-06
1.50645e-06
1.50411e-06
1.50411e-06
1.50411e-06
1.50411e-06
1.50411e-06
1.5065e-06
1.50688e-06
1.50717e-06
1.50824e-06
1.50696e-06
1.50647e-06
1.50411e-06
1.50411e-06
1.50411e-06
1.50654e-06
1.50688e-06
1.50714e-06
1.50846e-06
1.50825e-06
1.50706e-06
1.50696e-06
1.50689e-06
1.50692e-06
1.50703e-06
1.50717e-06
1.50846e-06
1.5084e-06
1.50841e-06
1.50834e-06
1.50834e-06
1.50845e-06
1.49424e-06
1.49276e-06
1.49266e-06
1.49271e-06
1.49408e-06
1.49425e-06
1.49433e-06
1.49297e-06
1.49233e-06
1.49001e-06
1.49001e-06
1.49001e-06
1.4924e-06
1.49288e-06
1.49415e-06
1.49297e-06
1.4923e-06
1.49001e-06
1.49002e-06
1.49001e-06
1.49002e-06
1.49001e-06
1.49235e-06
1.49287e-06
1.49416e-06
1.49424e-06
1.49233e-06
1.49001e-06
1.49002e-06
1.49002e-06
1.49002e-06
1.49002e-06
1.49002e-06
1.49001e-06
1.49237e-06
1.49297e-06
1.4943e-06
1.49276e-06
1.49001e-06
1.49002e-06
1.49002e-06
1.49002e-06
1.49002e-06
1.49002e-06
1.49002e-06
1.49002e-06
1.49001e-06
1.49287e-06
1.49431e-06
1.49266e-06
1.49001e-06
1.49002e-06
1.49002e-06
1.49002e-06
1.49002e-06
1.49002e-06
1.49002e-06
1.49002e-06
1.49001e-06
1.49279e-06
1.49424e-06
1.49271e-06
1.49001e-06
1.49002e-06
1.49002e-06
1.49002e-06
1.49002e-06
1.49002e-06
1.49002e-06
1.49002e-06
1.49001e-06
1.49283e-06
1.49425e-06
1.49408e-06
1.4924e-06
1.49001e-06
1.49002e-06
1.49002e-06
1.49002e-06
1.49002e-06
1.49002e-06
1.49001e-06
1.49245e-06
1.49294e-06
1.49435e-06
1.49425e-06
1.49288e-06
1.49235e-06
1.49001e-06
1.49002e-06
1.49002e-06
1.49002e-06
1.49001e-06
1.4924e-06
1.49278e-06
1.49308e-06
1.49415e-06
1.49287e-06
1.49237e-06
1.49001e-06
1.49001e-06
1.49001e-06
1.49245e-06
1.49278e-06
1.49305e-06
1.49437e-06
1.49416e-06
1.49297e-06
1.49287e-06
1.49279e-06
1.49283e-06
1.49294e-06
1.49308e-06
1.49437e-06
1.4943e-06
1.49431e-06
1.49424e-06
1.49425e-06
1.49435e-06
1.48014e-06
1.47866e-06
1.47857e-06
1.47862e-06
1.47999e-06
1.48015e-06
1.48023e-06
1.47887e-06
1.47824e-06
1.47592e-06
1.47592e-06
1.47592e-06
1.47831e-06
1.47879e-06
1.48005e-06
1.47887e-06
1.47821e-06
1.47592e-06
1.47592e-06
1.47592e-06
1.47592e-06
1.47592e-06
1.47826e-06
1.47878e-06
1.48006e-06
1.48014e-06
1.47824e-06
1.47592e-06
1.47592e-06
1.47592e-06
1.47592e-06
1.47592e-06
1.47592e-06
1.47592e-06
1.47828e-06
1.47888e-06
1.48021e-06
1.47866e-06
1.47592e-06
1.47592e-06
1.47592e-06
1.47592e-06
1.47592e-06
1.47592e-06
1.47592e-06
1.47592e-06
1.47592e-06
1.47877e-06
1.48022e-06
1.47857e-06
1.47592e-06
1.47592e-06
1.47592e-06
1.47592e-06
1.47592e-06
1.47592e-06
1.47592e-06
1.47592e-06
1.47592e-06
1.4787e-06
1.48015e-06
1.47862e-06
1.47592e-06
1.47592e-06
1.47592e-06
1.47592e-06
1.47592e-06
1.47592e-06
1.47592e-06
1.47592e-06
1.47592e-06
1.47873e-06
1.48016e-06
1.47999e-06
1.47831e-06
1.47592e-06
1.47592e-06
1.47592e-06
1.47592e-06
1.47592e-06
1.47592e-06
1.47592e-06
1.47835e-06
1.47885e-06
1.48026e-06
1.48015e-06
1.47879e-06
1.47826e-06
1.47592e-06
1.47592e-06
1.47592e-06
1.47592e-06
1.47592e-06
1.47831e-06
1.47869e-06
1.47899e-06
1.48005e-06
1.47878e-06
1.47828e-06
1.47592e-06
1.47592e-06
1.47592e-06
1.47835e-06
1.47869e-06
1.47895e-06
1.48028e-06
1.48006e-06
1.47888e-06
1.47877e-06
1.4787e-06
1.47873e-06
1.47885e-06
1.47899e-06
1.48028e-06
1.48021e-06
1.48022e-06
1.48015e-06
1.48016e-06
1.48026e-06
1.46605e-06
1.46457e-06
1.46448e-06
1.46452e-06
1.4659e-06
1.46606e-06
1.46614e-06
1.46478e-06
1.46415e-06
1.46183e-06
1.46183e-06
1.46183e-06
1.46422e-06
1.4647e-06
1.46596e-06
1.46478e-06
1.46412e-06
1.46183e-06
1.46183e-06
1.46183e-06
1.46183e-06
1.46183e-06
1.46417e-06
1.46468e-06
1.46597e-06
1.46605e-06
1.46415e-06
1.46183e-06
1.46183e-06
1.46183e-06
1.46183e-06
1.46183e-06
1.46183e-06
1.46183e-06
1.46419e-06
1.46478e-06
1.46612e-06
1.46457e-06
1.46183e-06
1.46183e-06
1.46183e-06
1.46183e-06
1.46183e-06
1.46183e-06
1.46183e-06
1.46183e-06
1.46183e-06
1.46468e-06
1.46613e-06
1.46448e-06
1.46183e-06
1.46183e-06
1.46183e-06
1.46183e-06
1.46183e-06
1.46183e-06
1.46183e-06
1.46183e-06
1.46183e-06
1.46461e-06
1.46606e-06
1.46452e-06
1.46183e-06
1.46183e-06
1.46183e-06
1.46183e-06
1.46183e-06
1.46183e-06
1.46183e-06
1.46183e-06
1.46183e-06
1.46464e-06
1.46606e-06
1.4659e-06
1.46422e-06
1.46183e-06
1.46183e-06
1.46183e-06
1.46183e-06
1.46183e-06
1.46183e-06
1.46183e-06
1.46426e-06
1.46475e-06
1.46617e-06
1.46606e-06
1.4647e-06
1.46417e-06
1.46183e-06
1.46183e-06
1.46183e-06
1.46183e-06
1.46183e-06
1.46422e-06
1.4646e-06
1.4649e-06
1.46596e-06
1.46468e-06
1.46419e-06
1.46183e-06
1.46183e-06
1.46183e-06
1.46426e-06
1.4646e-06
1.46486e-06
1.46618e-06
1.46597e-06
1.46478e-06
1.46468e-06
1.46461e-06
1.46464e-06
1.46475e-06
1.4649e-06
1.46618e-06
1.46612e-06
1.46613e-06
1.46606e-06
1.46606e-06
1.46617e-06
1.45196e-06
1.45048e-06
1.45038e-06
1.45043e-06
1.4518e-06
1.45197e-06
1.45205e-06
1.45069e-06
1.45005e-06
1.44774e-06
1.44774e-06
1.44774e-06
1.45013e-06
1.45061e-06
1.45187e-06
1.45069e-06
1.45002e-06
1.44774e-06
1.44774e-06
1.44774e-06
1.44774e-06
1.44774e-06
1.45007e-06
1.45059e-06
1.45188e-06
1.45196e-06
1.45005e-06
1.44774e-06
1.44774e-06
1.44774e-06
1.44774e-06
1.44774e-06
1.44774e-06
1.44774e-06
1.4501e-06
1.45069e-06
1.45203e-06
1.45048e-06
1.44774e-06
1.44774e-06
1.44774e-06
1.44774e-06
1.44774e-06
1.44774e-06
1.44774e-06
1.44774e-06
1.44774e-06
1.45059e-06
1.45204e-06
1.45038e-06
1.44774e-06
1.44774e-06
1.44774e-06
1.44774e-06
1.44774e-06
1.44774e-06
1.44774e-06
1.44774e-06
1.44774e-06
1.45051e-06
1.45197e-06
1.45043e-06
1.44774e-06
1.44774e-06
1.44774e-06
1.44774e-06
1.44774e-06
1.44774e-06
1.44774e-06
1.44774e-06
1.44774e-06
1.45055e-06
1.45197e-06
1.4518e-06
1.45013e-06
1.44774e-06
1.44774e-06
1.44774e-06
1.44774e-06
1.44774e-06
1.44774e-06
1.44774e-06
1.45017e-06
1.45066e-06
1.45207e-06
1.45197e-06
1.45061e-06
1.45007e-06
1.44774e-06
1.44774e-06
1.44774e-06
1.44774e-06
1.44774e-06
1.45013e-06
1.4505e-06
1.4508e-06
1.45187e-06
1.45059e-06
1.4501e-06
1.44774e-06
1.44774e-06
1.44774e-06
1.45017e-06
1.4505e-06
1.45077e-06
1.45209e-06
1.45188e-06
1.45069e-06
1.45059e-06
1.45052e-06
1.45055e-06
1.45066e-06
1.4508e-06
1.45209e-06
1.45203e-06
1.45204e-06
1.45197e-06
1.45197e-06
1.45207e-06
1.43786e-06
1.43638e-06
1.43629e-06
1.43634e-06
1.43771e-06
1.43787e-06
1.43795e-06
1.43659e-06
1.43596e-06
1.43364e-06
1.43364e-06
1.43364e-06
1.43603e-06
1.43651e-06
1.43778e-06
1.43659e-06
1.43593e-06
1.43364e-06
1.43364e-06
1.43364e-06
1.43364e-06
1.43364e-06
1.43598e-06
1.4365e-06
1.43779e-06
1.43786e-06
1.43596e-06
1.43364e-06
1.43364e-06
1.43364e-06
1.43364e-06
1.43364e-06
1.43364e-06
1.43364e-06
1.436e-06
1.4366e-06
1.43793e-06
1.43638e-06
1.43364e-06
1.43364e-06
1.43364e-06
1.43364e-06
1.43364e-06
1.43364e-06
1.43364e-06
1.43364e-06
1.43364e-06
1.4365e-06
1.43794e-06
1.43629e-06
1.43364e-06
1.43364e-06
1.43364e-06
1.43364e-06
1.43364e-06
1.43364e-06
1.43364e-06
1.43364e-06
1.43364e-06
1.43642e-06
1.43787e-06
1.43634e-06
1.43364e-06
1.43364e-06
1.43364e-06
1.43364e-06
1.43364e-06
1.43364e-06
1.43364e-06
1.43364e-06
1.43364e-06
1.43646e-06
1.43788e-06
1.43771e-06
1.43603e-06
1.43364e-06
1.43364e-06
1.43364e-06
1.43364e-06
1.43364e-06
1.43364e-06
1.43364e-06
1.43607e-06
1.43657e-06
1.43798e-06
1.43787e-06
1.43651e-06
1.43598e-06
1.43364e-06
1.43364e-06
1.43364e-06
1.43364e-06
1.43364e-06
1.43603e-06
1.43641e-06
1.43671e-06
1.43778e-06
1.4365e-06
1.436e-06
1.43364e-06
1.43364e-06
1.43364e-06
1.43607e-06
1.43641e-06
1.43668e-06
1.438e-06
1.43779e-06
1.4366e-06
1.4365e-06
1.43642e-06
1.43646e-06
1.43657e-06
1.43671e-06
1.438e-06
1.43793e-06
1.43794e-06
1.43787e-06
1.43788e-06
1.43798e-06
1.42377e-06
1.42229e-06
1.4222e-06
1.42225e-06
1.42362e-06
1.42378e-06
1.42386e-06
1.4225e-06
1.42187e-06
1.41955e-06
1.41955e-06
1.41955e-06
1.42194e-06
1.42242e-06
1.42368e-06
1.4225e-06
1.42184e-06
1.41955e-06
1.41955e-06
1.41955e-06
1.41955e-06
1.41955e-06
1.42189e-06
1.42241e-06
1.42369e-06
1.42377e-06
1.42187e-06
1.41955e-06
1.41955e-06
1.41955e-06
1.41955e-06
1.41955e-06
1.41955e-06
1.41955e-06
1.42191e-06
1.4225e-06
1.42384e-06
1.42229e-06
1.41955e-06
1.41955e-06
1.41955e-06
1.41955e-06
1.41955e-06
1.41955e-06
1.41955e-06
1.41955e-06
1.41955e-06
1.4224e-06
1.42385e-06
1.4222e-06
1.41955e-06
1.41955e-06
1.41955e-06
1.41955e-06
1.41955e-06
1.41955e-06
1.41955e-06
1.41955e-06
1.41955e-06
1.42233e-06
1.42378e-06
1.42225e-06
1.41955e-06
1.41955e-06
1.41955e-06
1.41955e-06
1.41955e-06
1.41955e-06
1.41955e-06
1.41955e-06
1.41955e-06
1.42236e-06
1.42379e-06
1.42362e-06
1.42194e-06
1.41955e-06
1.41955e-06
1.41955e-06
1.41955e-06
1.41955e-06
1.41955e-06
1.41955e-06
1.42198e-06
1.42248e-06
1.42389e-06
1.42378e-06
1.42242e-06
1.42189e-06
1.41955e-06
1.41955e-06
1.41955e-06
1.41955e-06
1.41955e-06
1.42194e-06
1.42232e-06
1.42262e-06
1.42368e-06
1.42241e-06
1.42191e-06
1.41955e-06
1.41955e-06
1.41955e-06
1.42198e-06
1.42232e-06
1.42258e-06
1.42391e-06
1.42369e-06
1.4225e-06
1.4224e-06
1.42233e-06
1.42236e-06
1.42248e-06
1.42262e-06
1.4239e-06
1.42384e-06
1.42385e-06
1.42378e-06
1.42379e-06
1.42389e-06
1.40968e-06
1.4082e-06
1.4081e-06
1.40815e-06
1.40952e-06
1.40969e-06
1.40977e-06
1.40841e-06
1.40778e-06
1.40546e-06
1.40546e-06
1.40546e-06
1.40785e-06
1.40833e-06
1.40959e-06
1.40841e-06
1.40775e-06
1.40546e-06
1.40546e-06
1.40546e-06
1.40546e-06
1.40546e-06
1.4078e-06
1.40831e-06
1.4096e-06
1.40968e-06
1.40778e-06
1.40546e-06
1.40546e-06
1.40546e-06
1.40546e-06
1.40546e-06
1.40546e-06
1.40546e-06
1.40782e-06
1.40841e-06
1.40975e-06
1.4082e-06
1.40546e-06
1.40546e-06
1.40546e-06
1.40546e-06
1.40546e-06
1.40546e-06
1.40546e-06
1.40546e-06
1.40546e-06
1.40831e-06
1.40976e-06
1.4081e-06
1.40546e-06
1.40546e-06
1.40546e-06
1.40546e-06
1.40546e-06
1.40546e-06
1.40546e-06
1.40546e-06
1.40546e-06
1.40824e-06
1.40969e-06
1.40815e-06
1.40546e-06
1.40546e-06
1.40546e-06
1.40546e-06
1.40546e-06
1.40546e-06
1.40546e-06
1.40546e-06
1.40546e-06
1.40827e-06
1.40969e-06
1.40952e-06
1.40785e-06
1.40546e-06
1.40546e-06
1.40546e-06
1.40546e-06
1.40546e-06
1.40546e-06
1.40546e-06
1.40789e-06
1.40838e-06
1.4098e-06
1.40969e-06
1.40833e-06
1.4078e-06
1.40546e-06
1.40546e-06
1.40546e-06
1.40546e-06
1.40546e-06
1.40785e-06
1.40823e-06
1.40852e-06
1.40959e-06
1.40831e-06
1.40782e-06
1.40546e-06
1.40546e-06
1.40546e-06
1.40789e-06
1.40823e-06
1.40849e-06
1.40981e-06
1.4096e-06
1.40841e-06
1.40831e-06
1.40824e-06
1.40827e-06
1.40838e-06
1.40852e-06
1.40981e-06
1.40975e-06
1.40976e-06
1.40969e-06
1.40969e-06
1.4098e-06
1.39559e-06
1.39411e-06
1.39401e-06
1.39406e-06
1.39543e-06
1.3956e-06
1.39568e-06
1.39432e-06
1.39368e-06
1.39137e-06
1.39137e-06
1.39137e-06
1.39375e-06
1.39423e-06
1.3955e-06
1.39432e-06
1.39365e-06
1.39137e-06
1.39137e-06
1.39137e-06
1.39137e-06
1.39137e-06
1.3937e-06
1.39422e-06
1.39551e-06
1.39559e-06
1.39368e-06
1.39137e-06
1.39137e-06
1.39137e-06
1.39137e-06
1.39137e-06
1.39137e-06
1.39137e-06
1.39372e-06
1.39432e-06
1.39565e-06
1.39411e-06
1.39137e-06
1.39137e-06
1.39137e-06
1.39137e-06
1.39137e-06
1.39137e-06
1.39137e-06
1.39137e-06
1.39137e-06
1.39422e-06
1.39566e-06
1.39401e-06
1.39137e-06
1.39137e-06
1.39137e-06
1.39137e-06
1.39137e-06
1.39137e-06
1.39137e-06
1.39137e-06
1.39137e-06
1.39414e-06
1.39559e-06
1.39406e-06
1.39137e-06
1.39137e-06
1.39137e-06
1.39137e-06
1.39137e-06
1.39137e-06
1.39137e-06
1.39137e-06