/*--------------------------------*- C++ -*----------------------------------*\
| =========                 |                                                 |
| \\      /  F ield         | OpenFOAM: The Open Source CFD Toolbox           |
|  \\    /   O peration     | Version:  v2012                                 |
|   \\  /    A nd           | Website:  www.openfoam.com                      |
|    \\/     M anipulation  |                                                 |
\*---------------------------------------------------------------------------*/
FoamFile
{
    version     2.0;
    format      ascii;
    class       volScalarField;
    location    "73";
    object      p;
}
// * * * * * * * * * * * * * * * * * * * * * * * * * * * * * * * * * * * * * //

dimensions      [0 2 -2 0 0 0 0];


internalField   nonuniform List<scalar> 
292667
(
1.04516e-06
1.03626e-06
1.0356e-06
1.03566e-06
1.03654e-06
1.04601e-06
1.03647e-06
1.03422e-06
1.03289e-06
1.03234e-06
1.03241e-06
1.03312e-06
1.03464e-06
1.03709e-06
1.03647e-06
1.03356e-06
1.03173e-06
1.03071e-06
1.03028e-06
1.03034e-06
1.03089e-06
1.03207e-06
1.03413e-06
1.03725e-06
1.04516e-06
1.03422e-06
1.03173e-06
1.03023e-06
1.0294e-06
1.02904e-06
1.02909e-06
1.02955e-06
1.03052e-06
1.03221e-06
1.03499e-06
1.04461e-06
1.03626e-06
1.03288e-06
1.03071e-06
1.0294e-06
1.02865e-06
1.02833e-06
1.02838e-06
1.02879e-06
1.02966e-06
1.03115e-06
1.0336e-06
1.03956e-06
1.0356e-06
1.03234e-06
1.03028e-06
1.02904e-06
1.02833e-06
1.02803e-06
1.02807e-06
1.02847e-06
1.02929e-06
1.0307e-06
1.03303e-06
1.03806e-06
1.03566e-06
1.03241e-06
1.03034e-06
1.02909e-06
1.02838e-06
1.02807e-06
1.02811e-06
1.02851e-06
1.02934e-06
1.03076e-06
1.03311e-06
1.03836e-06
1.03654e-06
1.03312e-06
1.03089e-06
1.02955e-06
1.02879e-06
1.02847e-06
1.02851e-06
1.02894e-06
1.02982e-06
1.03135e-06
1.03387e-06
1.03984e-06
1.04601e-06
1.03464e-06
1.03207e-06
1.03052e-06
1.02966e-06
1.02929e-06
1.02934e-06
1.02982e-06
1.03084e-06
1.0326e-06
1.03548e-06
1.04445e-06
1.03709e-06
1.03413e-06
1.03221e-06
1.03115e-06
1.0307e-06
1.03076e-06
1.03135e-06
1.0326e-06
1.03478e-06
1.04052e-06
1.03725e-06
1.03499e-06
1.0336e-06
1.03303e-06
1.03311e-06
1.03387e-06
1.03548e-06
1.04052e-06
1.04461e-06
1.03956e-06
1.03806e-06
1.03836e-06
1.03984e-06
1.04445e-06
1.02142e-06
1.0208e-06
1.02077e-06
1.02082e-06
1.02146e-06
1.02132e-06
1.02145e-06
1.02097e-06
1.02064e-06
1.01952e-06
1.0195e-06
1.01952e-06
1.0208e-06
1.02103e-06
1.02151e-06
1.02097e-06
1.02062e-06
1.01956e-06
1.01951e-06
1.01955e-06
1.01951e-06
1.01956e-06
1.02079e-06
1.02102e-06
1.02149e-06
1.02142e-06
1.02064e-06
1.01956e-06
1.0195e-06
1.01952e-06
1.0195e-06
1.01952e-06
1.0195e-06
1.01956e-06
1.02079e-06
1.02105e-06
1.02151e-06
1.0208e-06
1.01952e-06
1.01951e-06
1.01952e-06
1.01948e-06
1.01949e-06
1.01948e-06
1.01952e-06
1.01951e-06
1.01952e-06
1.02121e-06
1.02169e-06
1.02077e-06
1.0195e-06
1.01955e-06
1.0195e-06
1.01949e-06
1.01948e-06
1.01949e-06
1.0195e-06
1.01955e-06
1.0195e-06
1.02123e-06
1.02163e-06
1.02082e-06
1.01952e-06
1.01951e-06
1.01952e-06
1.01948e-06
1.01949e-06
1.01948e-06
1.01952e-06
1.01951e-06
1.01952e-06
1.02123e-06
1.02165e-06
1.02146e-06
1.0208e-06
1.01956e-06
1.0195e-06
1.01952e-06
1.0195e-06
1.01952e-06
1.0195e-06
1.01956e-06
1.02099e-06
1.02112e-06
1.02164e-06
1.02132e-06
1.02103e-06
1.02079e-06
1.01956e-06
1.01951e-06
1.01955e-06
1.01951e-06
1.01956e-06
1.02096e-06
1.02109e-06
1.02108e-06
1.02151e-06
1.02102e-06
1.02079e-06
1.01952e-06
1.0195e-06
1.01952e-06
1.02099e-06
1.02109e-06
1.02111e-06
1.0216e-06
1.02149e-06
1.02105e-06
1.02121e-06
1.02123e-06
1.02123e-06
1.02112e-06
1.02108e-06
1.0216e-06
1.02151e-06
1.02169e-06
1.02163e-06
1.02165e-06
1.02164e-06
1.01274e-06
1.01205e-06
1.012e-06
1.01204e-06
1.01276e-06
1.01277e-06
1.01275e-06
1.01215e-06
1.01177e-06
1.01069e-06
1.01069e-06
1.01069e-06
1.01193e-06
1.01219e-06
1.01276e-06
1.01215e-06
1.01175e-06
1.01073e-06
1.01074e-06
1.01077e-06
1.01074e-06
1.01073e-06
1.01192e-06
1.01219e-06
1.01277e-06
1.01274e-06
1.01177e-06
1.01073e-06
1.01075e-06
1.01079e-06
1.01079e-06
1.01079e-06
1.01075e-06
1.01073e-06
1.01194e-06
1.01226e-06
1.01278e-06
1.01205e-06
1.01069e-06
1.01074e-06
1.01079e-06
1.0108e-06
1.01082e-06
1.0108e-06
1.01079e-06
1.01074e-06
1.01069e-06
1.01233e-06
1.01294e-06
1.012e-06
1.01069e-06
1.01077e-06
1.01079e-06
1.01082e-06
1.01082e-06
1.01082e-06
1.01079e-06
1.01077e-06
1.01069e-06
1.01233e-06
1.01296e-06
1.01204e-06
1.01069e-06
1.01074e-06
1.01079e-06
1.0108e-06
1.01082e-06
1.0108e-06
1.01079e-06
1.01074e-06
1.01069e-06
1.01233e-06
1.01296e-06
1.01276e-06
1.01193e-06
1.01073e-06
1.01075e-06
1.01079e-06
1.01079e-06
1.01079e-06
1.01075e-06
1.01073e-06
1.01215e-06
1.01231e-06
1.01292e-06
1.01277e-06
1.01219e-06
1.01192e-06
1.01073e-06
1.01074e-06
1.01077e-06
1.01074e-06
1.01073e-06
1.01213e-06
1.01225e-06
1.01233e-06
1.01276e-06
1.01219e-06
1.01194e-06
1.01069e-06
1.01069e-06
1.01069e-06
1.01215e-06
1.01225e-06
1.01231e-06
1.0129e-06
1.01277e-06
1.01226e-06
1.01233e-06
1.01233e-06
1.01233e-06
1.01231e-06
1.01233e-06
1.0129e-06
1.01278e-06
1.01294e-06
1.01296e-06
1.01296e-06
1.01292e-06
1.00408e-06
1.00338e-06
1.00332e-06
1.00337e-06
1.00409e-06
1.00411e-06
1.00409e-06
1.00348e-06
1.00307e-06
1.00198e-06
1.00198e-06
1.00198e-06
1.00323e-06
1.0035e-06
1.0041e-06
1.00348e-06
1.00304e-06
1.002e-06
1.00202e-06
1.00203e-06
1.00202e-06
1.002e-06
1.00321e-06
1.0035e-06
1.0041e-06
1.00408e-06
1.00307e-06
1.002e-06
1.00203e-06
1.00205e-06
1.00206e-06
1.00205e-06
1.00203e-06
1.002e-06
1.00323e-06
1.00358e-06
1.00412e-06
1.00338e-06
1.00198e-06
1.00202e-06
1.00206e-06
1.00207e-06
1.00208e-06
1.00207e-06
1.00206e-06
1.00202e-06
1.00198e-06
1.00365e-06
1.00427e-06
1.00332e-06
1.00198e-06
1.00203e-06
1.00206e-06
1.00208e-06
1.00209e-06
1.00208e-06
1.00206e-06
1.00203e-06
1.00198e-06
1.00364e-06
1.00429e-06
1.00337e-06
1.00198e-06
1.00202e-06
1.00206e-06
1.00207e-06
1.00208e-06
1.00207e-06
1.00205e-06
1.00202e-06
1.00198e-06
1.00364e-06
1.00429e-06
1.00409e-06
1.00323e-06
1.002e-06
1.00203e-06
1.00206e-06
1.00206e-06
1.00206e-06
1.00203e-06
1.002e-06
1.00345e-06
1.00363e-06
1.00426e-06
1.00411e-06
1.0035e-06
1.00321e-06
1.002e-06
1.00202e-06
1.00203e-06
1.00202e-06
1.002e-06
1.00342e-06
1.00356e-06
1.00367e-06
1.0041e-06
1.0035e-06
1.00323e-06
1.00198e-06
1.00198e-06
1.00198e-06
1.00345e-06
1.00356e-06
1.00364e-06
1.00424e-06
1.0041e-06
1.00358e-06
1.00365e-06
1.00364e-06
1.00364e-06
1.00363e-06
1.00367e-06
1.00424e-06
1.00412e-06
1.00427e-06
1.00429e-06
1.00429e-06
1.00426e-06
9.95414e-07
9.94714e-07
9.94653e-07
9.94701e-07
9.95429e-07
9.95446e-07
9.95426e-07
9.94812e-07
9.944e-07
9.93298e-07
9.93299e-07
9.93298e-07
9.9455e-07
9.94833e-07
9.9544e-07
9.94812e-07
9.94365e-07
9.93308e-07
9.93319e-07
9.93326e-07
9.93319e-07
9.93308e-07
9.94531e-07
9.94831e-07
9.95443e-07
9.95413e-07
9.944e-07
9.93308e-07
9.93325e-07
9.93342e-07
9.93343e-07
9.93342e-07
9.93324e-07
9.93308e-07
9.94554e-07
9.94915e-07
9.95459e-07
9.94714e-07
9.93298e-07
9.93319e-07
9.93342e-07
9.93354e-07
9.93362e-07
9.93354e-07
9.93342e-07
9.93319e-07
9.93297e-07
9.94977e-07
9.95611e-07
9.94653e-07
9.93299e-07
9.93326e-07
9.93344e-07
9.93363e-07
9.93365e-07
9.93363e-07
9.93344e-07
9.93326e-07
9.93299e-07
9.94971e-07
9.95631e-07
9.94701e-07
9.93298e-07
9.93319e-07
9.93342e-07
9.93354e-07
9.93362e-07
9.93354e-07
9.93342e-07
9.93319e-07
9.93297e-07
9.94973e-07
9.95631e-07
9.95429e-07
9.9455e-07
9.93308e-07
9.93325e-07
9.93342e-07
9.93344e-07
9.93342e-07
9.93324e-07
9.93308e-07
9.9477e-07
9.94965e-07
9.95599e-07
9.95446e-07
9.94833e-07
9.94531e-07
9.93308e-07
9.93319e-07
9.93326e-07
9.93319e-07
9.93308e-07
9.94741e-07
9.94887e-07
9.95004e-07
9.9544e-07
9.94831e-07
9.94554e-07
9.93298e-07
9.93299e-07
9.93298e-07
9.9477e-07
9.94888e-07
9.9498e-07
9.95579e-07
9.95443e-07
9.94915e-07
9.94977e-07
9.94971e-07
9.94973e-07
9.94965e-07
9.95004e-07
9.95579e-07
9.95459e-07
9.95611e-07
9.95631e-07
9.95631e-07
9.95599e-07
9.86748e-07
9.86047e-07
9.85986e-07
9.86034e-07
9.86765e-07
9.86781e-07
9.86762e-07
9.86145e-07
9.8573e-07
9.84624e-07
9.84625e-07
9.84624e-07
9.85881e-07
9.86166e-07
9.86775e-07
9.86145e-07
9.85694e-07
9.84629e-07
9.84636e-07
9.84639e-07
9.84636e-07
9.84629e-07
9.8586e-07
9.86163e-07
9.86779e-07
9.86749e-07
9.8573e-07
9.84629e-07
9.84639e-07
9.84649e-07
9.8465e-07
9.84649e-07
9.84639e-07
9.84629e-07
9.85884e-07
9.86249e-07
9.86794e-07
9.86047e-07
9.84624e-07
9.84636e-07
9.84649e-07
9.84657e-07
9.84662e-07
9.84657e-07
9.84649e-07
9.84636e-07
9.84624e-07
9.8631e-07
9.86946e-07
9.85986e-07
9.84625e-07
9.84639e-07
9.8465e-07
9.84662e-07
9.84664e-07
9.84662e-07
9.8465e-07
9.84639e-07
9.84625e-07
9.86303e-07
9.86966e-07
9.86034e-07
9.84624e-07
9.84636e-07
9.84649e-07
9.84657e-07
9.84662e-07
9.84657e-07
9.84649e-07
9.84636e-07
9.84624e-07
9.86305e-07
9.86966e-07
9.86765e-07
9.85881e-07
9.84629e-07
9.84639e-07
9.84649e-07
9.8465e-07
9.84649e-07
9.84639e-07
9.84629e-07
9.861e-07
9.86299e-07
9.86935e-07
9.86781e-07
9.86166e-07
9.8586e-07
9.84629e-07
9.84636e-07
9.84639e-07
9.84636e-07
9.84629e-07
9.86069e-07
9.8622e-07
9.86339e-07
9.86775e-07
9.86163e-07
9.85884e-07
9.84624e-07
9.84625e-07
9.84624e-07
9.861e-07
9.8622e-07
9.86315e-07
9.86915e-07
9.86779e-07
9.86249e-07
9.8631e-07
9.86303e-07
9.86305e-07
9.86299e-07
9.86339e-07
9.86915e-07
9.86794e-07
9.86946e-07
9.86966e-07
9.86966e-07
9.86935e-07
9.78083e-07
9.77381e-07
9.7732e-07
9.77367e-07
9.78098e-07
9.78116e-07
9.78096e-07
9.77479e-07
9.77062e-07
9.75954e-07
9.75955e-07
9.75954e-07
9.77213e-07
9.77499e-07
9.7811e-07
9.77479e-07
9.77026e-07
9.75957e-07
9.75961e-07
9.75962e-07
9.75961e-07
9.75957e-07
9.77191e-07
9.77497e-07
9.78113e-07
9.78083e-07
9.77063e-07
9.75957e-07
9.75963e-07
9.75968e-07
9.75969e-07
9.75968e-07
9.75963e-07
9.75957e-07
9.77216e-07
9.77583e-07
9.78128e-07
9.77381e-07
9.75954e-07
9.75961e-07
9.75968e-07
9.75973e-07
9.75975e-07
9.75973e-07
9.75968e-07
9.75961e-07
9.75954e-07
9.77643e-07
9.78281e-07
9.7732e-07
9.75955e-07
9.75962e-07
9.75969e-07
9.75975e-07
9.75977e-07
9.75975e-07
9.75969e-07
9.75963e-07
9.75955e-07
9.77636e-07
9.78299e-07
9.77367e-07
9.75954e-07
9.75961e-07
9.75968e-07
9.75973e-07
9.75975e-07
9.75973e-07
9.75968e-07
9.75961e-07
9.75954e-07
9.77638e-07
9.78299e-07
9.78098e-07
9.77213e-07
9.75957e-07
9.75963e-07
9.75968e-07
9.75969e-07
9.75968e-07
9.75963e-07
9.75957e-07
9.77432e-07
9.77633e-07
9.78269e-07
9.78116e-07
9.77499e-07
9.77191e-07
9.75957e-07
9.75961e-07
9.75963e-07
9.75962e-07
9.75957e-07
9.774e-07
9.77553e-07
9.77674e-07
9.7811e-07
9.77497e-07
9.77216e-07
9.75954e-07
9.75955e-07
9.75954e-07
9.77432e-07
9.77553e-07
9.77649e-07
9.78249e-07
9.78113e-07
9.77583e-07
9.77643e-07
9.77636e-07
9.77638e-07
9.77633e-07
9.77674e-07
9.78249e-07
9.78128e-07
9.7828e-07
9.78299e-07
9.78299e-07
9.78269e-07
9.69417e-07
9.68714e-07
9.68653e-07
9.68701e-07
9.69432e-07
9.6945e-07
9.6943e-07
9.68812e-07
9.68395e-07
9.67285e-07
9.67287e-07
9.67286e-07
9.68546e-07
9.68833e-07
9.69444e-07
9.68812e-07
9.68358e-07
9.67287e-07
9.6729e-07
9.67291e-07
9.6729e-07
9.67287e-07
9.68524e-07
9.6883e-07
9.69447e-07
9.69416e-07
9.68395e-07
9.67287e-07
9.67291e-07
9.67293e-07
9.67294e-07
9.67293e-07
9.67291e-07
9.67287e-07
9.68549e-07
9.68917e-07
9.69462e-07
9.68714e-07
9.67286e-07
9.6729e-07
9.67293e-07
9.67297e-07
9.67298e-07
9.67297e-07
9.67293e-07
9.6729e-07
9.67286e-07
9.68977e-07
9.69614e-07
9.68653e-07
9.67287e-07
9.6729e-07
9.67294e-07
9.67298e-07
9.67299e-07
9.67298e-07
9.67294e-07
9.67291e-07
9.67287e-07
9.68969e-07
9.69633e-07
9.68701e-07
9.67286e-07
9.6729e-07
9.67293e-07
9.67297e-07
9.67298e-07
9.67297e-07
9.67293e-07
9.6729e-07
9.67286e-07
9.68971e-07
9.69633e-07
9.69432e-07
9.68546e-07
9.67287e-07
9.67291e-07
9.67293e-07
9.67294e-07
9.67293e-07
9.67291e-07
9.67287e-07
9.68765e-07
9.68967e-07
9.69602e-07
9.6945e-07
9.68833e-07
9.68524e-07
9.67287e-07
9.6729e-07
9.67291e-07
9.6729e-07
9.67287e-07
9.68732e-07
9.68887e-07
9.69007e-07
9.69444e-07
9.6883e-07
9.68549e-07
9.67286e-07
9.67287e-07
9.67286e-07
9.68765e-07
9.68887e-07
9.68983e-07
9.69583e-07
9.69447e-07
9.68917e-07
9.68977e-07
9.68969e-07
9.68971e-07
9.68967e-07
9.69007e-07
9.69583e-07
9.69462e-07
9.69614e-07
9.69633e-07
9.69633e-07
9.69602e-07
9.6075e-07
9.60047e-07
9.59986e-07
9.60034e-07
9.60765e-07
9.60783e-07
9.60763e-07
9.60146e-07
9.59728e-07
9.58618e-07
9.58619e-07
9.58618e-07
9.59879e-07
9.60166e-07
9.60777e-07
9.60146e-07
9.59691e-07
9.58619e-07
9.58621e-07
9.58621e-07
9.58621e-07
9.58619e-07
9.59857e-07
9.60164e-07
9.6078e-07
9.6075e-07
9.59728e-07
9.58619e-07
9.58621e-07
9.58622e-07
9.58623e-07
9.58622e-07
9.58621e-07
9.58619e-07
9.59882e-07
9.6025e-07
9.60796e-07
9.60047e-07
9.58618e-07
9.58621e-07
9.58622e-07
9.58625e-07
9.58625e-07
9.58625e-07
9.58622e-07
9.58621e-07
9.58618e-07
9.6031e-07
9.60948e-07
9.59986e-07
9.58619e-07
9.58621e-07
9.58623e-07
9.58625e-07
9.58626e-07
9.58625e-07
9.58623e-07
9.58621e-07
9.58619e-07
9.60302e-07
9.60966e-07
9.60034e-07
9.58618e-07
9.58621e-07
9.58622e-07
9.58625e-07
9.58625e-07
9.58625e-07
9.58622e-07
9.58621e-07
9.58618e-07
9.60304e-07
9.60967e-07
9.60765e-07
9.59879e-07
9.58619e-07
9.58621e-07
9.58622e-07
9.58623e-07
9.58622e-07
9.58621e-07
9.58619e-07
9.60098e-07
9.603e-07
9.60936e-07
9.60783e-07
9.60166e-07
9.59857e-07
9.58619e-07
9.58621e-07
9.58621e-07
9.58621e-07
9.58619e-07
9.60066e-07
9.6022e-07
9.60341e-07
9.60777e-07
9.60164e-07
9.59882e-07
9.58618e-07
9.58619e-07
9.58618e-07
9.60098e-07
9.6022e-07
9.60316e-07
9.60917e-07
9.60781e-07
9.6025e-07
9.6031e-07
9.60302e-07
9.60304e-07
9.603e-07
9.60341e-07
9.60917e-07
9.60796e-07
9.60948e-07
9.60966e-07
9.60967e-07
9.60936e-07
9.52083e-07
9.5138e-07
9.51319e-07
9.51367e-07
9.52099e-07
9.52116e-07
9.52097e-07
9.51479e-07
9.51061e-07
9.49951e-07
9.49952e-07
9.49951e-07
9.51212e-07
9.51499e-07
9.52111e-07
9.51479e-07
9.51024e-07
9.49952e-07
9.49953e-07
9.49953e-07
9.49953e-07
9.49952e-07
9.5119e-07
9.51497e-07
9.52114e-07
9.52083e-07
9.51061e-07
9.49952e-07
9.49953e-07
9.49953e-07
9.49954e-07
9.49953e-07
9.49953e-07
9.49952e-07
9.51215e-07
9.51583e-07
9.52129e-07
9.5138e-07
9.49951e-07
9.49953e-07
9.49953e-07
9.49955e-07
9.49955e-07
9.49955e-07
9.49953e-07
9.49953e-07
9.49951e-07
9.51643e-07
9.52281e-07
9.51319e-07
9.49952e-07
9.49953e-07
9.49954e-07
9.49955e-07
9.49956e-07
9.49955e-07
9.49954e-07
9.49953e-07
9.49952e-07
9.51636e-07
9.523e-07
9.51367e-07
9.49951e-07
9.49953e-07
9.49953e-07
9.49955e-07
9.49955e-07
9.49955e-07
9.49953e-07
9.49953e-07
9.49951e-07
9.51637e-07
9.523e-07
9.52099e-07
9.51212e-07
9.49952e-07
9.49953e-07
9.49953e-07
9.49954e-07
9.49953e-07
9.49953e-07
9.49952e-07
9.51431e-07
9.51633e-07
9.52269e-07
9.52116e-07
9.51499e-07
9.5119e-07
9.49952e-07
9.49953e-07
9.49953e-07
9.49953e-07
9.49952e-07
9.51398e-07
9.51553e-07
9.51674e-07
9.52111e-07
9.51497e-07
9.51215e-07
9.49951e-07
9.49952e-07
9.49951e-07
9.51431e-07
9.51553e-07
9.5165e-07
9.5225e-07
9.52114e-07
9.51583e-07
9.51643e-07
9.51636e-07
9.51637e-07
9.51633e-07
9.51674e-07
9.5225e-07
9.52129e-07
9.52281e-07
9.523e-07
9.523e-07
9.52269e-07
9.43417e-07
9.42714e-07
9.42653e-07
9.427e-07
9.43432e-07
9.4345e-07
9.4343e-07
9.42812e-07
9.42395e-07
9.41284e-07
9.41285e-07
9.41284e-07
9.42546e-07
9.42833e-07
9.43444e-07
9.42812e-07
9.42358e-07
9.41284e-07
9.41286e-07
9.41285e-07
9.41286e-07
9.41284e-07
9.42523e-07
9.4283e-07
9.43447e-07
9.43417e-07
9.42395e-07
9.41284e-07
9.41286e-07
9.41285e-07
9.41286e-07
9.41285e-07
9.41286e-07
9.41284e-07
9.42548e-07
9.42916e-07
9.43462e-07
9.42714e-07
9.41284e-07
9.41286e-07
9.41286e-07
9.41287e-07
9.41286e-07
9.41287e-07
9.41286e-07
9.41286e-07
9.41284e-07
9.42976e-07
9.43614e-07
9.42653e-07
9.41285e-07
9.41285e-07
9.41286e-07
9.41286e-07
9.41287e-07
9.41286e-07
9.41286e-07
9.41285e-07
9.41285e-07
9.42969e-07
9.43633e-07
9.427e-07
9.41284e-07
9.41286e-07
9.41285e-07
9.41287e-07
9.41286e-07
9.41287e-07
9.41285e-07
9.41286e-07
9.41284e-07
9.4297e-07
9.43633e-07
9.43432e-07
9.42546e-07
9.41284e-07
9.41286e-07
9.41285e-07
9.41286e-07
9.41285e-07
9.41286e-07
9.41284e-07
9.42765e-07
9.42966e-07
9.43602e-07
9.4345e-07
9.42833e-07
9.42523e-07
9.41284e-07
9.41286e-07
9.41285e-07
9.41286e-07
9.41284e-07
9.42731e-07
9.42886e-07
9.43007e-07
9.43444e-07
9.4283e-07
9.42548e-07
9.41284e-07
9.41285e-07
9.41284e-07
9.42765e-07
9.42886e-07
9.42983e-07
9.43583e-07
9.43447e-07
9.42916e-07
9.42976e-07
9.42969e-07
9.4297e-07
9.42966e-07
9.43008e-07
9.43584e-07
9.43462e-07
9.43614e-07
9.43633e-07
9.43633e-07
9.43602e-07
9.3475e-07
9.34047e-07
9.33986e-07
9.34034e-07
9.34765e-07
9.34783e-07
9.34763e-07
9.34145e-07
9.33728e-07
9.32617e-07
9.32618e-07
9.32617e-07
9.33879e-07
9.34166e-07
9.34777e-07
9.34145e-07
9.33691e-07
9.32617e-07
9.32619e-07
9.32618e-07
9.32619e-07
9.32617e-07
9.33856e-07
9.34163e-07
9.34781e-07
9.3475e-07
9.33728e-07
9.32617e-07
9.32618e-07
9.32618e-07
9.32618e-07
9.32618e-07
9.32618e-07
9.32617e-07
9.33881e-07
9.3425e-07
9.34795e-07
9.34047e-07
9.32617e-07
9.32619e-07
9.32618e-07
9.3262e-07
9.32618e-07
9.3262e-07
9.32618e-07
9.32619e-07
9.32617e-07
9.3431e-07
9.34948e-07
9.33986e-07
9.32617e-07
9.32618e-07
9.32618e-07
9.32618e-07
9.32619e-07
9.32618e-07
9.32618e-07
9.32618e-07
9.32617e-07
9.34302e-07
9.34966e-07
9.34034e-07
9.32617e-07
9.32619e-07
9.32618e-07
9.3262e-07
9.32618e-07
9.3262e-07
9.32618e-07
9.32619e-07
9.32617e-07
9.34304e-07
9.34966e-07
9.34765e-07
9.33879e-07
9.32617e-07
9.32618e-07
9.32618e-07
9.32618e-07
9.32618e-07
9.32618e-07
9.32617e-07
9.34098e-07
9.343e-07
9.34936e-07
9.34783e-07
9.34166e-07
9.33856e-07
9.32617e-07
9.32619e-07
9.32618e-07
9.32619e-07
9.32617e-07
9.34065e-07
9.34219e-07
9.34341e-07
9.34777e-07
9.34163e-07
9.33881e-07
9.32617e-07
9.32618e-07
9.32617e-07
9.34098e-07
9.34219e-07
9.34316e-07
9.34917e-07
9.34781e-07
9.3425e-07
9.3431e-07
9.34302e-07
9.34304e-07
9.343e-07
9.34341e-07
9.34917e-07
9.34795e-07
9.34948e-07
9.34966e-07
9.34966e-07
9.34936e-07
9.26083e-07
9.2538e-07
9.25319e-07
9.25367e-07
9.26099e-07
9.26116e-07
9.26096e-07
9.25478e-07
9.25061e-07
9.2395e-07
9.23951e-07
9.2395e-07
9.25212e-07
9.25499e-07
9.2611e-07
9.25478e-07
9.25024e-07
9.2395e-07
9.23952e-07
9.23951e-07
9.23952e-07
9.2395e-07
9.25189e-07
9.25496e-07
9.26114e-07
9.26083e-07
9.25061e-07
9.2395e-07
9.23951e-07
9.23951e-07
9.23951e-07
9.23951e-07
9.23951e-07
9.2395e-07
9.25214e-07
9.25583e-07
9.26129e-07
9.2538e-07
9.2395e-07
9.23952e-07
9.23951e-07
9.23952e-07
9.23951e-07
9.23952e-07
9.23951e-07
9.23952e-07
9.2395e-07
9.25643e-07
9.26281e-07
9.25319e-07
9.23951e-07
9.23951e-07
9.23951e-07
9.23951e-07
9.23952e-07
9.23951e-07
9.23951e-07
9.23951e-07
9.23951e-07
9.25635e-07
9.26299e-07
9.25367e-07
9.2395e-07
9.23952e-07
9.23951e-07
9.23952e-07
9.23951e-07
9.23952e-07
9.23951e-07
9.23952e-07
9.2395e-07
9.25637e-07
9.263e-07
9.26099e-07
9.25212e-07
9.2395e-07
9.23951e-07
9.23951e-07
9.23951e-07
9.23951e-07
9.23951e-07
9.2395e-07
9.25431e-07
9.25633e-07
9.26269e-07
9.26116e-07
9.25499e-07
9.25189e-07
9.2395e-07
9.23952e-07
9.23951e-07
9.23952e-07
9.2395e-07
9.25398e-07
9.25552e-07
9.25674e-07
9.2611e-07
9.25496e-07
9.25214e-07
9.2395e-07
9.23951e-07
9.2395e-07
9.25431e-07
9.25553e-07
9.25649e-07
9.2625e-07
9.26114e-07
9.25583e-07
9.25643e-07
9.25635e-07
9.25637e-07
9.25633e-07
9.25674e-07
9.2625e-07
9.26129e-07
9.26281e-07
9.26299e-07
9.263e-07
9.26269e-07
9.17416e-07
9.16713e-07
9.16652e-07
9.167e-07
9.17432e-07
9.17449e-07
9.1743e-07
9.16812e-07
9.16394e-07
9.15283e-07
9.15284e-07
9.15283e-07
9.16545e-07
9.16832e-07
9.17443e-07
9.16812e-07
9.16357e-07
9.15283e-07
9.15285e-07
9.15284e-07
9.15285e-07
9.15283e-07
9.16522e-07
9.16829e-07
9.17447e-07
9.17416e-07
9.16394e-07
9.15283e-07
9.15284e-07
9.15284e-07
9.15284e-07
9.15284e-07
9.15284e-07
9.15283e-07
9.16547e-07
9.16916e-07
9.17462e-07
9.16713e-07
9.15283e-07
9.15285e-07
9.15284e-07
9.15285e-07
9.15284e-07
9.15285e-07
9.15284e-07
9.15285e-07
9.15283e-07
9.16976e-07
9.17614e-07
9.16652e-07
9.15284e-07
9.15284e-07
9.15284e-07
9.15284e-07
9.15284e-07
9.15284e-07
9.15284e-07
9.15284e-07
9.15284e-07
9.16968e-07
9.17632e-07
9.167e-07
9.15283e-07
9.15285e-07
9.15284e-07
9.15285e-07
9.15284e-07
9.15285e-07
9.15284e-07
9.15285e-07
9.15283e-07
9.1697e-07
9.17633e-07
9.17432e-07
9.16545e-07
9.15283e-07
9.15284e-07
9.15284e-07
9.15284e-07
9.15284e-07
9.15284e-07
9.15283e-07
9.16764e-07
9.16966e-07
9.17602e-07
9.17449e-07
9.16832e-07
9.16522e-07
9.15283e-07
9.15285e-07
9.15284e-07
9.15285e-07
9.15283e-07
9.16731e-07
9.16886e-07
9.17007e-07
9.17443e-07
9.16829e-07
9.16547e-07
9.15283e-07
9.15284e-07
9.15283e-07
9.16764e-07
9.16886e-07
9.16983e-07
9.17583e-07
9.17447e-07
9.16916e-07
9.16976e-07
9.16968e-07
9.1697e-07
9.16966e-07
9.17007e-07
9.17583e-07
9.17462e-07
9.17614e-07
9.17633e-07
9.17633e-07
9.17602e-07
9.08749e-07
9.08046e-07
9.07985e-07
9.08033e-07
9.08765e-07
9.08782e-07
9.08763e-07
9.08145e-07
9.07727e-07
9.06616e-07
9.06617e-07
9.06616e-07
9.07878e-07
9.08165e-07
9.08777e-07
9.08145e-07
9.0769e-07
9.06616e-07
9.06618e-07
9.06617e-07
9.06618e-07
9.06616e-07
9.07855e-07
9.08162e-07
9.0878e-07
9.08749e-07
9.07727e-07
9.06616e-07
9.06617e-07
9.06617e-07
9.06617e-07
9.06617e-07
9.06617e-07
9.06616e-07
9.07881e-07
9.08249e-07
9.08795e-07
9.08046e-07
9.06616e-07
9.06618e-07
9.06617e-07
9.06618e-07
9.06617e-07
9.06618e-07
9.06617e-07
9.06618e-07
9.06616e-07
9.08309e-07
9.08947e-07
9.07985e-07
9.06617e-07
9.06617e-07
9.06617e-07
9.06617e-07
9.06617e-07
9.06617e-07
9.06617e-07
9.06617e-07
9.06617e-07
9.08301e-07
9.08966e-07
9.08033e-07
9.06616e-07
9.06618e-07
9.06617e-07
9.06618e-07
9.06617e-07
9.06618e-07
9.06617e-07
9.06618e-07
9.06616e-07
9.08303e-07
9.08966e-07
9.08765e-07
9.07878e-07
9.06616e-07
9.06617e-07
9.06617e-07
9.06617e-07
9.06617e-07
9.06617e-07
9.06616e-07
9.08097e-07
9.08299e-07
9.08935e-07
9.08782e-07
9.08165e-07
9.07855e-07
9.06616e-07
9.06618e-07
9.06617e-07
9.06618e-07
9.06616e-07
9.08064e-07
9.08219e-07
9.0834e-07
9.08777e-07
9.08163e-07
9.07881e-07
9.06616e-07
9.06617e-07
9.06616e-07
9.08097e-07
9.08219e-07
9.08316e-07
9.08916e-07
9.0878e-07
9.08249e-07
9.08309e-07
9.08301e-07
9.08303e-07
9.08299e-07
9.0834e-07
9.08916e-07
9.08795e-07
9.08947e-07
9.08966e-07
9.08966e-07
9.08935e-07
9.00082e-07
8.9938e-07
8.99318e-07
8.99366e-07
9.00098e-07
9.00116e-07
9.00096e-07
8.99478e-07
8.9906e-07
8.97949e-07
8.9795e-07
8.97949e-07
8.99211e-07
8.99498e-07
9.0011e-07
8.99478e-07
8.99023e-07
8.9795e-07
8.97951e-07
8.9795e-07
8.97951e-07
8.9795e-07
8.99188e-07
8.99496e-07
9.00113e-07
9.00082e-07
8.9906e-07
8.9795e-07
8.97951e-07
8.9795e-07
8.9795e-07
8.9795e-07
8.9795e-07
8.9795e-07
8.99214e-07
8.99582e-07
9.00128e-07
8.99379e-07
8.97949e-07
8.97951e-07
8.9795e-07
8.97951e-07
8.9795e-07
8.97951e-07
8.9795e-07
8.97951e-07
8.97949e-07
8.99642e-07
9.0028e-07
8.99318e-07
8.9795e-07
8.9795e-07
8.9795e-07
8.9795e-07
8.9795e-07
8.9795e-07
8.9795e-07
8.9795e-07
8.9795e-07
8.99634e-07
9.00299e-07
8.99366e-07
8.97949e-07
8.97951e-07
8.9795e-07
8.97951e-07
8.9795e-07
8.97951e-07
8.9795e-07
8.97951e-07
8.97949e-07
8.99636e-07
9.00299e-07
9.00098e-07
8.99211e-07
8.9795e-07
8.97951e-07
8.9795e-07
8.9795e-07
8.9795e-07
8.97951e-07
8.9795e-07
8.9943e-07
8.99632e-07
9.00268e-07
9.00116e-07
8.99498e-07
8.99188e-07
8.9795e-07
8.97951e-07
8.9795e-07
8.97951e-07
8.9795e-07
8.99397e-07
8.99552e-07
8.99673e-07
9.0011e-07
8.99496e-07
8.99214e-07
8.97949e-07
8.9795e-07
8.97949e-07
8.9943e-07
8.99552e-07
8.99649e-07
9.00249e-07
9.00113e-07
8.99582e-07
8.99642e-07
8.99634e-07
8.99636e-07
8.99632e-07
8.99673e-07
9.00249e-07
9.00128e-07
9.0028e-07
9.00299e-07
9.00299e-07
9.00268e-07
8.91416e-07
8.90713e-07
8.90652e-07
8.90699e-07
8.91431e-07
8.91449e-07
8.91429e-07
8.90811e-07
8.90394e-07
8.89283e-07
8.89283e-07
8.89283e-07
8.90545e-07
8.90832e-07
8.91443e-07
8.90811e-07
8.90356e-07
8.89283e-07
8.89285e-07
8.89283e-07
8.89285e-07
8.89283e-07
8.90522e-07
8.90829e-07
8.91446e-07
8.91416e-07
8.90394e-07
8.89283e-07
8.89284e-07
8.89283e-07
8.89284e-07
8.89283e-07
8.89284e-07
8.89283e-07
8.90547e-07
8.90916e-07
8.91461e-07
8.90713e-07
8.89283e-07
8.89285e-07
8.89283e-07
8.89285e-07
8.89283e-07
8.89285e-07
8.89283e-07
8.89285e-07
8.89283e-07
8.90975e-07
8.91613e-07
8.90652e-07
8.89283e-07
8.89283e-07
8.89284e-07
8.89283e-07
8.89284e-07
8.89283e-07
8.89284e-07
8.89283e-07
8.89283e-07
8.90968e-07
8.91632e-07
8.90699e-07
8.89283e-07
8.89285e-07
8.89283e-07
8.89284e-07
8.89283e-07
8.89285e-07
8.89283e-07
8.89285e-07
8.89283e-07
8.9097e-07
8.91632e-07
8.91431e-07
8.90545e-07
8.89283e-07
8.89284e-07
8.89283e-07
8.89284e-07
8.89283e-07
8.89284e-07
8.89283e-07
8.90763e-07
8.90965e-07
8.91601e-07
8.91449e-07
8.90832e-07
8.90522e-07
8.89283e-07
8.89285e-07
8.89283e-07
8.89285e-07
8.89283e-07
8.9073e-07
8.90885e-07
8.91007e-07
8.91443e-07
8.90829e-07
8.90547e-07
8.89283e-07
8.89283e-07
8.89283e-07
8.90763e-07
8.90885e-07
8.90982e-07
8.91583e-07
8.91446e-07
8.90916e-07
8.90975e-07
8.90968e-07
8.9097e-07
8.90965e-07
8.91007e-07
8.91583e-07
8.91461e-07
8.91613e-07
8.91632e-07
8.91632e-07
8.91601e-07
8.82749e-07
8.82046e-07
8.81985e-07
8.82033e-07
8.82764e-07
8.82782e-07
8.82762e-07
8.82145e-07
8.81727e-07
8.80616e-07
8.80617e-07
8.80616e-07
8.81878e-07
8.82165e-07
8.82776e-07
8.82145e-07
8.8169e-07
8.80616e-07
8.80618e-07
8.80617e-07
8.80618e-07
8.80616e-07
8.81855e-07
8.82162e-07
8.8278e-07
8.82749e-07
8.81727e-07
8.80616e-07
8.80617e-07
8.80616e-07
8.80617e-07
8.80616e-07
8.80617e-07
8.80616e-07
8.8188e-07
8.82249e-07
8.82794e-07
8.82046e-07
8.80616e-07
8.80618e-07
8.80616e-07
8.80618e-07
8.80617e-07
8.80618e-07
8.80616e-07
8.80618e-07
8.80616e-07
8.82309e-07
8.82947e-07
8.81985e-07
8.80617e-07
8.80617e-07
8.80617e-07
8.80617e-07
8.80617e-07
8.80617e-07
8.80617e-07
8.80617e-07
8.80617e-07
8.82301e-07
8.82965e-07
8.82033e-07
8.80616e-07
8.80618e-07
8.80616e-07
8.80618e-07
8.80617e-07
8.80618e-07
8.80616e-07
8.80618e-07
8.80616e-07
8.82303e-07
8.82965e-07
8.82764e-07
8.81878e-07
8.80616e-07
8.80617e-07
8.80616e-07
8.80617e-07
8.80616e-07
8.80617e-07
8.80616e-07
8.82097e-07
8.82299e-07
8.82935e-07
8.82782e-07
8.82165e-07
8.81855e-07
8.80616e-07
8.80618e-07
8.80617e-07
8.80618e-07
8.80616e-07
8.82064e-07
8.82219e-07
8.8234e-07
8.82776e-07
8.82162e-07
8.8188e-07
8.80616e-07
8.80617e-07
8.80616e-07
8.82097e-07
8.82219e-07
8.82315e-07
8.82916e-07
8.8278e-07
8.82249e-07
8.82309e-07
8.82301e-07
8.82303e-07
8.82299e-07
8.8234e-07
8.82916e-07
8.82794e-07
8.82947e-07
8.82965e-07
8.82965e-07
8.82935e-07
8.74082e-07
8.73379e-07
8.73318e-07
8.73366e-07
8.74098e-07
8.74115e-07
8.74096e-07
8.73478e-07
8.7306e-07
8.71949e-07
8.7195e-07
8.71949e-07
8.73211e-07
8.73498e-07
8.7411e-07
8.73478e-07
8.73023e-07
8.71949e-07
8.71951e-07
8.7195e-07
8.71951e-07
8.71949e-07
8.73188e-07
8.73496e-07
8.74113e-07
8.74082e-07
8.7306e-07
8.71949e-07
8.7195e-07
8.71949e-07
8.7195e-07
8.7195e-07
8.7195e-07
8.71949e-07
8.73214e-07
8.73582e-07
8.74128e-07
8.73379e-07
8.71949e-07
8.71951e-07
8.71949e-07
8.71951e-07
8.7195e-07
8.71951e-07
8.7195e-07
8.71951e-07
8.71949e-07
8.73642e-07
8.7428e-07
8.73318e-07
8.7195e-07
8.7195e-07
8.7195e-07
8.7195e-07
8.7195e-07
8.7195e-07
8.7195e-07
8.7195e-07
8.7195e-07
8.73634e-07
8.74298e-07
8.73366e-07
8.71949e-07
8.71951e-07
8.71949e-07
8.71951e-07
8.7195e-07
8.71951e-07
8.7195e-07
8.71951e-07
8.71949e-07
8.73636e-07
8.74299e-07
8.74098e-07
8.73211e-07
8.71949e-07
8.7195e-07
8.71949e-07
8.7195e-07
8.7195e-07
8.7195e-07
8.71949e-07
8.7343e-07
8.73632e-07
8.74268e-07
8.74115e-07
8.73498e-07
8.73188e-07
8.71949e-07
8.71951e-07
8.7195e-07
8.71951e-07
8.71949e-07
8.73397e-07
8.73552e-07
8.73673e-07
8.7411e-07
8.73495e-07
8.73214e-07
8.71949e-07
8.7195e-07
8.71949e-07
8.7343e-07
8.73552e-07
8.73649e-07
8.74249e-07
8.74113e-07
8.73582e-07
8.73642e-07
8.73634e-07
8.73636e-07
8.73632e-07
8.73673e-07
8.74249e-07
8.74128e-07
8.7428e-07
8.74299e-07
8.74299e-07
8.74268e-07
8.65415e-07
8.64712e-07
8.64651e-07
8.64699e-07
8.65431e-07
8.65448e-07
8.65429e-07
8.64811e-07
8.64393e-07
8.63282e-07
8.63283e-07
8.63282e-07
8.64544e-07
8.64831e-07
8.65443e-07
8.64811e-07
8.64356e-07
8.63283e-07
8.63284e-07
8.63283e-07
8.63284e-07
8.63283e-07
8.64521e-07
8.64829e-07
8.65446e-07
8.65415e-07
8.64393e-07
8.63283e-07
8.63283e-07
8.63283e-07
8.63283e-07
8.63283e-07
8.63283e-07
8.63283e-07
8.64547e-07
8.64915e-07
8.65461e-07
8.64712e-07
8.63282e-07
8.63284e-07
8.63283e-07
8.63284e-07
8.63283e-07
8.63284e-07
8.63283e-07
8.63284e-07
8.63282e-07
8.64975e-07
8.65613e-07
8.64651e-07
8.63283e-07
8.63283e-07
8.63283e-07
8.63283e-07
8.63283e-07
8.63283e-07
8.63283e-07
8.63283e-07
8.63283e-07
8.64967e-07
8.65632e-07
8.64699e-07
8.63282e-07
8.63284e-07
8.63283e-07
8.63284e-07
8.63283e-07
8.63284e-07
8.63283e-07
8.63284e-07
8.63282e-07
8.64969e-07
8.65632e-07
8.65431e-07
8.64544e-07
8.63283e-07
8.63283e-07
8.63283e-07
8.63283e-07
8.63283e-07
8.63283e-07
8.63283e-07
8.64763e-07
8.64965e-07
8.65601e-07
8.65448e-07
8.64831e-07
8.64521e-07
8.63283e-07
8.63284e-07
8.63283e-07
8.63284e-07
8.63283e-07
8.6473e-07
8.64885e-07
8.65006e-07
8.65443e-07
8.64829e-07
8.64547e-07
8.63282e-07
8.63283e-07
8.63282e-07
8.64763e-07
8.64885e-07
8.64982e-07
8.65582e-07
8.65446e-07
8.64915e-07
8.64975e-07
8.64967e-07
8.64969e-07
8.64965e-07
8.65006e-07
8.65582e-07
8.65461e-07
8.65613e-07
8.65632e-07
8.65632e-07
8.65601e-07
8.56748e-07
8.56046e-07
8.55984e-07
8.56032e-07
8.56764e-07
8.56782e-07
8.56762e-07
8.56144e-07
8.55726e-07
8.54615e-07
8.54616e-07
8.54615e-07
8.55877e-07
8.56164e-07
8.56776e-07
8.56144e-07
8.55689e-07
8.54616e-07
8.54617e-07
8.54616e-07
8.54617e-07
8.54616e-07
8.55854e-07
8.56162e-07
8.56779e-07
8.56748e-07
8.55726e-07
8.54616e-07
8.54616e-07
8.54616e-07
8.54616e-07
8.54616e-07
8.54617e-07
8.54616e-07
8.5588e-07
8.56248e-07
8.56794e-07
8.56045e-07
8.54615e-07
8.54617e-07
8.54616e-07
8.54617e-07
8.54616e-07
8.54617e-07
8.54616e-07
8.54617e-07
8.54615e-07
8.56308e-07
8.56946e-07
8.55984e-07
8.54616e-07
8.54616e-07
8.54616e-07
8.54616e-07
8.54616e-07
8.54616e-07
8.54616e-07
8.54616e-07
8.54616e-07
8.563e-07
8.56965e-07
8.56032e-07
8.54615e-07
8.54617e-07
8.54616e-07
8.54617e-07
8.54616e-07
8.54617e-07
8.54616e-07
8.54617e-07
8.54615e-07