/*--------------------------------*- C++ -*----------------------------------*\
| =========                 |                                                 |
| \\      /  F ield         | OpenFOAM: The Open Source CFD Toolbox           |
|  \\    /   O peration     | Version:  v2012                                 |
|   \\  /    A nd           | Website:  www.openfoam.com                      |
|    \\/     M anipulation  |                                                 |
\*---------------------------------------------------------------------------*/
FoamFile
{
    version     2.0;
    format      ascii;
    class       volScalarField;
    location    "10";
    object      p;
}
// * * * * * * * * * * * * * * * * * * * * * * * * * * * * * * * * * * * * * //

dimensions      [0 2 -2 0 0 0 0];


internalField   nonuniform List<scalar> 
292667
(
1.86929e-06
1.85359e-06
1.85215e-06
1.85229e-06
1.85438e-06
1.87034e-06
1.85396e-06
1.84902e-06
1.84625e-06
1.84513e-06
1.84528e-06
1.84676e-06
1.85004e-06
1.85554e-06
1.85396e-06
1.84765e-06
1.84395e-06
1.84195e-06
1.84111e-06
1.84123e-06
1.84233e-06
1.84469e-06
1.84895e-06
1.856e-06
1.86928e-06
1.84902e-06
1.84395e-06
1.84106e-06
1.83945e-06
1.83876e-06
1.83885e-06
1.83976e-06
1.84164e-06
1.84497e-06
1.8508e-06
1.8706e-06
1.85359e-06
1.84625e-06
1.84195e-06
1.83945e-06
1.83803e-06
1.83742e-06
1.8375e-06
1.8383e-06
1.83996e-06
1.84282e-06
1.84777e-06
1.86036e-06
1.85215e-06
1.84513e-06
1.84111e-06
1.83876e-06
1.83742e-06
1.83683e-06
1.83692e-06
1.83768e-06
1.83923e-06
1.84192e-06
1.84656e-06
1.8572e-06
1.85229e-06
1.84528e-06
1.84123e-06
1.83885e-06
1.8375e-06
1.83692e-06
1.837e-06
1.83776e-06
1.83933e-06
1.84204e-06
1.84671e-06
1.85739e-06
1.85438e-06
1.84676e-06
1.84233e-06
1.83976e-06
1.8383e-06
1.83768e-06
1.83776e-06
1.83858e-06
1.84028e-06
1.84322e-06
1.84833e-06
1.8609e-06
1.87034e-06
1.85004e-06
1.84469e-06
1.84164e-06
1.83996e-06
1.83923e-06
1.83933e-06
1.84028e-06
1.84225e-06
1.84576e-06
1.85186e-06
1.87116e-06
1.85554e-06
1.84895e-06
1.84497e-06
1.84282e-06
1.84192e-06
1.84204e-06
1.84322e-06
1.84576e-06
1.85033e-06
1.8613e-06
1.856e-06
1.8508e-06
1.84777e-06
1.84656e-06
1.84671e-06
1.84833e-06
1.85186e-06
1.8613e-06
1.8706e-06
1.86036e-06
1.8572e-06
1.85739e-06
1.8609e-06
1.87116e-06
1.82559e-06
1.82389e-06
1.8238e-06
1.82388e-06
1.82529e-06
1.82542e-06
1.82569e-06
1.82427e-06
1.82367e-06
1.82117e-06
1.82111e-06
1.82117e-06
1.82363e-06
1.82405e-06
1.82548e-06
1.82426e-06
1.82368e-06
1.82134e-06
1.82117e-06
1.82115e-06
1.82116e-06
1.82132e-06
1.82353e-06
1.82406e-06
1.82545e-06
1.82559e-06
1.82367e-06
1.82135e-06
1.82124e-06
1.82118e-06
1.82116e-06
1.82118e-06
1.82124e-06
1.82137e-06
1.82352e-06
1.8241e-06
1.8257e-06
1.82389e-06
1.82117e-06
1.82118e-06
1.82118e-06
1.82115e-06
1.82113e-06
1.82115e-06
1.82119e-06
1.82118e-06
1.82118e-06
1.82395e-06
1.8254e-06
1.8238e-06
1.82111e-06
1.82115e-06
1.82116e-06
1.82113e-06
1.82112e-06
1.82113e-06
1.82116e-06
1.82115e-06
1.82112e-06
1.82381e-06
1.82508e-06
1.82388e-06
1.82117e-06
1.82116e-06
1.82118e-06
1.82115e-06
1.82113e-06
1.82115e-06
1.82118e-06
1.82117e-06
1.82118e-06
1.82387e-06
1.82515e-06
1.82529e-06
1.82363e-06
1.82132e-06
1.82124e-06
1.82119e-06
1.82116e-06
1.82118e-06
1.82123e-06
1.82134e-06
1.82337e-06
1.82405e-06
1.82552e-06
1.82542e-06
1.82405e-06
1.82353e-06
1.82137e-06
1.82118e-06
1.82115e-06
1.82118e-06
1.82134e-06
1.82335e-06
1.82389e-06
1.8242e-06
1.82548e-06
1.82406e-06
1.82352e-06
1.82118e-06
1.82112e-06
1.82118e-06
1.82337e-06
1.82389e-06
1.82433e-06
1.82568e-06
1.82545e-06
1.8241e-06
1.82395e-06
1.82381e-06
1.82387e-06
1.82405e-06
1.8242e-06
1.82567e-06
1.8257e-06
1.8254e-06
1.82508e-06
1.82515e-06
1.82552e-06
1.80995e-06
1.80836e-06
1.80832e-06
1.80834e-06
1.80976e-06
1.80995e-06
1.81005e-06
1.80858e-06
1.80803e-06
1.80547e-06
1.80545e-06
1.80547e-06
1.80802e-06
1.80843e-06
1.80983e-06
1.80858e-06
1.80801e-06
1.80553e-06
1.80549e-06
1.80551e-06
1.80549e-06
1.80553e-06
1.80793e-06
1.80841e-06
1.80984e-06
1.80995e-06
1.80803e-06
1.80553e-06
1.80552e-06
1.80557e-06
1.80558e-06
1.80557e-06
1.80552e-06
1.80553e-06
1.80793e-06
1.8085e-06
1.81002e-06
1.80836e-06
1.80547e-06
1.80549e-06
1.80557e-06
1.80559e-06
1.8056e-06
1.80559e-06
1.80557e-06
1.80549e-06
1.80547e-06
1.80837e-06
1.81e-06
1.80832e-06
1.80545e-06
1.80551e-06
1.80558e-06
1.8056e-06
1.80561e-06
1.8056e-06
1.80558e-06
1.80551e-06
1.80546e-06
1.80828e-06
1.80991e-06
1.80834e-06
1.80547e-06
1.80549e-06
1.80557e-06
1.80559e-06
1.8056e-06
1.8056e-06
1.80557e-06
1.80549e-06
1.80547e-06
1.80832e-06
1.80992e-06
1.80976e-06
1.80802e-06
1.80553e-06
1.80552e-06
1.80557e-06
1.80558e-06
1.80557e-06
1.80552e-06
1.80553e-06
1.80785e-06
1.80845e-06
1.81005e-06
1.80995e-06
1.80843e-06
1.80793e-06
1.80553e-06
1.8055e-06
1.80551e-06
1.80549e-06
1.80553e-06
1.80781e-06
1.80827e-06
1.80864e-06
1.80983e-06
1.80841e-06
1.80793e-06
1.80547e-06
1.80546e-06
1.80547e-06
1.80785e-06
1.80828e-06
1.80862e-06
1.81006e-06
1.80984e-06
1.8085e-06
1.80837e-06
1.80828e-06
1.80832e-06
1.80845e-06
1.80864e-06
1.81006e-06
1.81002e-06
1.81e-06
1.80991e-06
1.80992e-06
1.81005e-06
1.79453e-06
1.79291e-06
1.79286e-06
1.79287e-06
1.79433e-06
1.79454e-06
1.79464e-06
1.79314e-06
1.79253e-06
1.78992e-06
1.78992e-06
1.78992e-06
1.79252e-06
1.793e-06
1.79441e-06
1.79314e-06
1.7925e-06
1.78996e-06
1.78996e-06
1.78997e-06
1.78996e-06
1.78997e-06
1.79245e-06
1.79297e-06
1.79442e-06
1.79454e-06
1.79253e-06
1.78997e-06
1.78998e-06
1.79002e-06
1.79003e-06
1.79002e-06
1.78998e-06
1.78997e-06
1.79245e-06
1.79308e-06
1.7946e-06
1.79291e-06
1.78992e-06
1.78996e-06
1.79002e-06
1.79005e-06
1.79006e-06
1.79005e-06
1.79002e-06
1.78996e-06
1.78992e-06
1.79292e-06
1.79457e-06
1.79286e-06
1.78992e-06
1.78997e-06
1.79003e-06
1.79006e-06
1.79007e-06
1.79006e-06
1.79003e-06
1.78997e-06
1.78992e-06
1.79283e-06
1.79448e-06
1.79287e-06
1.78992e-06
1.78996e-06
1.79002e-06
1.79005e-06
1.79006e-06
1.79005e-06
1.79002e-06
1.78996e-06
1.78992e-06
1.79287e-06
1.79448e-06
1.79433e-06
1.79252e-06
1.78997e-06
1.78998e-06
1.79002e-06
1.79003e-06
1.79002e-06
1.78998e-06
1.78997e-06
1.7924e-06
1.79301e-06
1.79461e-06
1.79454e-06
1.793e-06
1.79245e-06
1.78997e-06
1.78996e-06
1.78997e-06
1.78996e-06
1.78997e-06
1.79236e-06
1.79282e-06
1.79321e-06
1.79441e-06
1.79297e-06
1.79245e-06
1.78992e-06
1.78992e-06
1.78992e-06
1.7924e-06
1.79282e-06
1.79318e-06
1.79465e-06
1.79442e-06
1.79308e-06
1.79292e-06
1.79283e-06
1.79287e-06
1.79301e-06
1.79321e-06
1.79465e-06
1.7946e-06
1.79457e-06
1.79448e-06
1.79448e-06
1.79461e-06
1.77909e-06
1.77745e-06
1.7774e-06
1.77741e-06
1.77888e-06
1.7791e-06
1.7792e-06
1.77769e-06
1.77705e-06
1.77443e-06
1.77443e-06
1.77443e-06
1.77704e-06
1.77755e-06
1.77896e-06
1.77769e-06
1.77701e-06
1.77445e-06
1.77445e-06
1.77447e-06
1.77445e-06
1.77445e-06
1.77697e-06
1.77753e-06
1.77898e-06
1.77909e-06
1.77705e-06
1.77445e-06
1.77447e-06
1.7745e-06
1.7745e-06
1.7745e-06
1.77447e-06
1.77445e-06
1.77698e-06
1.77763e-06
1.77916e-06
1.77745e-06
1.77443e-06
1.77446e-06
1.7745e-06
1.77452e-06
1.77453e-06
1.77452e-06
1.7745e-06
1.77446e-06
1.77443e-06
1.77747e-06
1.77912e-06
1.7774e-06
1.77443e-06
1.77447e-06
1.7745e-06
1.77453e-06
1.77454e-06
1.77453e-06
1.7745e-06
1.77447e-06
1.77443e-06
1.77738e-06
1.77903e-06
1.77741e-06
1.77443e-06
1.77445e-06
1.7745e-06
1.77452e-06
1.77453e-06
1.77452e-06
1.7745e-06
1.77445e-06
1.77443e-06
1.77741e-06
1.77903e-06
1.77888e-06
1.77705e-06
1.77445e-06
1.77447e-06
1.7745e-06
1.7745e-06
1.7745e-06
1.77447e-06
1.77445e-06
1.77694e-06
1.77757e-06
1.77917e-06
1.7791e-06
1.77755e-06
1.77697e-06
1.77445e-06
1.77446e-06
1.77447e-06
1.77446e-06
1.77445e-06
1.77691e-06
1.77737e-06
1.77776e-06
1.77897e-06
1.77753e-06
1.77698e-06
1.77443e-06
1.77443e-06
1.77443e-06
1.77694e-06
1.77738e-06
1.77773e-06
1.77921e-06
1.77898e-06
1.77763e-06
1.77747e-06
1.77738e-06
1.77741e-06
1.77757e-06
1.77776e-06
1.7792e-06
1.77916e-06
1.77912e-06
1.77903e-06
1.77903e-06
1.77917e-06
1.76364e-06
1.762e-06
1.76194e-06
1.76196e-06
1.76343e-06
1.76364e-06
1.76375e-06
1.76223e-06
1.76158e-06
1.75896e-06
1.75896e-06
1.75896e-06
1.76158e-06
1.76209e-06
1.76351e-06
1.76223e-06
1.76154e-06
1.75897e-06
1.75897e-06
1.75898e-06
1.75897e-06
1.75897e-06
1.76151e-06
1.76207e-06
1.76353e-06
1.76364e-06
1.76158e-06
1.75897e-06
1.75898e-06
1.759e-06
1.759e-06
1.759e-06
1.75898e-06
1.75897e-06
1.76152e-06
1.76218e-06
1.76371e-06
1.762e-06
1.75896e-06
1.75898e-06
1.759e-06
1.75901e-06
1.75902e-06
1.75901e-06
1.759e-06
1.75898e-06
1.75896e-06
1.76201e-06
1.76367e-06
1.76194e-06
1.75896e-06
1.75898e-06
1.759e-06
1.75902e-06
1.75903e-06
1.75902e-06
1.759e-06
1.75898e-06
1.75896e-06
1.76192e-06
1.76358e-06
1.76196e-06
1.75896e-06
1.75898e-06
1.759e-06
1.75901e-06
1.75902e-06
1.75901e-06
1.759e-06
1.75898e-06
1.75896e-06
1.76196e-06
1.76358e-06
1.76343e-06
1.76158e-06
1.75897e-06
1.75898e-06
1.759e-06
1.759e-06
1.759e-06
1.75898e-06
1.75897e-06
1.76149e-06
1.76211e-06
1.76372e-06
1.76364e-06
1.76209e-06
1.76151e-06
1.75897e-06
1.75898e-06
1.75898e-06
1.75898e-06
1.75897e-06
1.76145e-06
1.76192e-06
1.76231e-06
1.76351e-06
1.76207e-06
1.76152e-06
1.75896e-06
1.75896e-06
1.75896e-06
1.76149e-06
1.76192e-06
1.76227e-06
1.76375e-06
1.76353e-06
1.76218e-06
1.76201e-06
1.76192e-06
1.76196e-06
1.76211e-06
1.76231e-06
1.76375e-06
1.76371e-06
1.76367e-06
1.76358e-06
1.76358e-06
1.76372e-06
1.74819e-06
1.74654e-06
1.74649e-06
1.7465e-06
1.74798e-06
1.74819e-06
1.74829e-06
1.74678e-06
1.74612e-06
1.7435e-06
1.7435e-06
1.7435e-06
1.74612e-06
1.74664e-06
1.74806e-06
1.74678e-06
1.74608e-06
1.7435e-06
1.74351e-06
1.74351e-06
1.74351e-06
1.7435e-06
1.74605e-06
1.74662e-06
1.74807e-06
1.74819e-06
1.74612e-06
1.7435e-06
1.74351e-06
1.74352e-06
1.74352e-06
1.74352e-06
1.74351e-06
1.7435e-06
1.74606e-06
1.74673e-06
1.74825e-06
1.74654e-06
1.7435e-06
1.74351e-06
1.74352e-06
1.74353e-06
1.74353e-06
1.74353e-06
1.74352e-06
1.74351e-06
1.7435e-06
1.74656e-06
1.74821e-06
1.74649e-06
1.7435e-06
1.74351e-06
1.74352e-06
1.74353e-06
1.74354e-06
1.74353e-06
1.74352e-06
1.74351e-06
1.7435e-06
1.74646e-06
1.74812e-06
1.7465e-06
1.7435e-06
1.74351e-06
1.74352e-06
1.74353e-06
1.74353e-06
1.74353e-06
1.74352e-06
1.74351e-06
1.7435e-06
1.7465e-06
1.74813e-06
1.74798e-06
1.74612e-06
1.7435e-06
1.74351e-06
1.74352e-06
1.74352e-06
1.74352e-06
1.74351e-06
1.7435e-06
1.74603e-06
1.74666e-06
1.74826e-06
1.74819e-06
1.74664e-06
1.74605e-06
1.7435e-06
1.74351e-06
1.74351e-06
1.74351e-06
1.7435e-06
1.74599e-06
1.74647e-06
1.74685e-06
1.74806e-06
1.74662e-06
1.74606e-06
1.7435e-06
1.7435e-06
1.7435e-06
1.74603e-06
1.74647e-06
1.74682e-06
1.7483e-06
1.74807e-06
1.74673e-06
1.74656e-06
1.74646e-06
1.7465e-06
1.74666e-06
1.74685e-06
1.7483e-06
1.74825e-06
1.74821e-06
1.74812e-06
1.74813e-06
1.74826e-06
1.73273e-06
1.73109e-06
1.73103e-06
1.73105e-06
1.73252e-06
1.73273e-06
1.73284e-06
1.73132e-06
1.73066e-06
1.72804e-06
1.72804e-06
1.72804e-06
1.73066e-06
1.73118e-06
1.7326e-06
1.73132e-06
1.73062e-06
1.72804e-06
1.72804e-06
1.72804e-06
1.72804e-06
1.72804e-06
1.73059e-06
1.73116e-06
1.73262e-06
1.73273e-06
1.73066e-06
1.72804e-06
1.72805e-06
1.72805e-06
1.72805e-06
1.72805e-06
1.72805e-06
1.72804e-06
1.73061e-06
1.73127e-06
1.7328e-06
1.73109e-06
1.72804e-06
1.72804e-06
1.72805e-06
1.72806e-06
1.72806e-06
1.72806e-06
1.72805e-06
1.72804e-06
1.72804e-06
1.7311e-06
1.73276e-06
1.73103e-06
1.72804e-06
1.72804e-06
1.72805e-06
1.72806e-06
1.72806e-06
1.72806e-06
1.72805e-06
1.72804e-06
1.72804e-06
1.73101e-06
1.73267e-06
1.73105e-06
1.72804e-06
1.72804e-06
1.72805e-06
1.72806e-06
1.72806e-06
1.72806e-06
1.72805e-06
1.72804e-06
1.72804e-06
1.73104e-06
1.73267e-06
1.73252e-06
1.73066e-06
1.72804e-06
1.72805e-06
1.72805e-06
1.72805e-06
1.72805e-06
1.72805e-06
1.72804e-06
1.73057e-06
1.7312e-06
1.73281e-06
1.73273e-06
1.73118e-06
1.73059e-06
1.72804e-06
1.72804e-06
1.72804e-06
1.72804e-06
1.72804e-06
1.73054e-06
1.73101e-06
1.7314e-06
1.7326e-06
1.73116e-06
1.73061e-06
1.72804e-06
1.72804e-06
1.72804e-06
1.73057e-06
1.73101e-06
1.73136e-06
1.73284e-06
1.73262e-06
1.73127e-06
1.7311e-06
1.73101e-06
1.73104e-06
1.7312e-06
1.7314e-06
1.73284e-06
1.7328e-06
1.73276e-06
1.73267e-06
1.73267e-06
1.73281e-06
1.71727e-06
1.71563e-06
1.71557e-06
1.71559e-06
1.71707e-06
1.71728e-06
1.71738e-06
1.71586e-06
1.71521e-06
1.71258e-06
1.71258e-06
1.71258e-06
1.71521e-06
1.71573e-06
1.71715e-06
1.71586e-06
1.71517e-06
1.71258e-06
1.71258e-06
1.71258e-06
1.71258e-06
1.71258e-06
1.71513e-06
1.7157e-06
1.71716e-06
1.71727e-06
1.71521e-06
1.71258e-06
1.71258e-06
1.71259e-06
1.71259e-06
1.71259e-06
1.71258e-06
1.71258e-06
1.71515e-06
1.71581e-06
1.71734e-06
1.71563e-06
1.71258e-06
1.71258e-06
1.71259e-06
1.71259e-06
1.71259e-06
1.71259e-06
1.71259e-06
1.71258e-06
1.71258e-06
1.71564e-06
1.7173e-06
1.71557e-06
1.71258e-06
1.71258e-06
1.71259e-06
1.71259e-06
1.71259e-06
1.71259e-06
1.71259e-06
1.71258e-06
1.71258e-06
1.71555e-06
1.71721e-06
1.71559e-06
1.71258e-06
1.71258e-06
1.71259e-06
1.71259e-06
1.71259e-06
1.71259e-06
1.71259e-06
1.71258e-06
1.71258e-06
1.71559e-06
1.71721e-06
1.71707e-06
1.71521e-06
1.71258e-06
1.71258e-06
1.71259e-06
1.71259e-06
1.71259e-06
1.71258e-06
1.71258e-06
1.71512e-06
1.71575e-06
1.71735e-06
1.71728e-06
1.71573e-06
1.71513e-06
1.71258e-06
1.71258e-06
1.71258e-06
1.71258e-06
1.71258e-06
1.71508e-06
1.71555e-06
1.71594e-06
1.71715e-06
1.7157e-06
1.71515e-06
1.71258e-06
1.71258e-06
1.71258e-06
1.71512e-06
1.71555e-06
1.7159e-06
1.71739e-06
1.71716e-06
1.71581e-06
1.71564e-06
1.71555e-06
1.71559e-06
1.71575e-06
1.71594e-06
1.71738e-06
1.71734e-06
1.7173e-06
1.71721e-06
1.71721e-06
1.71735e-06
1.70182e-06
1.70017e-06
1.70012e-06
1.70013e-06
1.70161e-06
1.70182e-06
1.70193e-06
1.70041e-06
1.69975e-06
1.69712e-06
1.69712e-06
1.69712e-06
1.69975e-06
1.70027e-06
1.70169e-06
1.70041e-06
1.69971e-06
1.69712e-06
1.69712e-06
1.69712e-06
1.69712e-06
1.69712e-06
1.69967e-06
1.70025e-06
1.7017e-06
1.70182e-06
1.69975e-06
1.69712e-06
1.69712e-06
1.69713e-06
1.69713e-06
1.69713e-06
1.69712e-06
1.69712e-06
1.69969e-06
1.70036e-06
1.70188e-06
1.70017e-06
1.69712e-06
1.69712e-06
1.69713e-06
1.69713e-06
1.69713e-06
1.69713e-06
1.69713e-06
1.69712e-06
1.69712e-06
1.70019e-06
1.70185e-06
1.70012e-06
1.69712e-06
1.69712e-06
1.69713e-06
1.69713e-06
1.69713e-06
1.69713e-06
1.69713e-06
1.69712e-06
1.69712e-06
1.7001e-06
1.70175e-06
1.70013e-06
1.69712e-06
1.69712e-06
1.69713e-06
1.69713e-06
1.69713e-06
1.69713e-06
1.69713e-06
1.69712e-06
1.69712e-06
1.70013e-06
1.70176e-06
1.70161e-06
1.69975e-06
1.69712e-06
1.69712e-06
1.69713e-06
1.69713e-06
1.69713e-06
1.69712e-06
1.69712e-06
1.69966e-06
1.70029e-06
1.70189e-06
1.70182e-06
1.70027e-06
1.69967e-06
1.69712e-06
1.69712e-06
1.69712e-06
1.69712e-06
1.69712e-06
1.69962e-06
1.7001e-06
1.70048e-06
1.70169e-06
1.70025e-06
1.69969e-06
1.69712e-06
1.69712e-06
1.69712e-06
1.69966e-06
1.7001e-06
1.70045e-06
1.70193e-06
1.7017e-06
1.70036e-06
1.70019e-06
1.70009e-06
1.70013e-06
1.70029e-06
1.70048e-06
1.70193e-06
1.70188e-06
1.70184e-06
1.70175e-06
1.70176e-06
1.70189e-06
1.68636e-06
1.68471e-06
1.68466e-06
1.68468e-06
1.68615e-06
1.68636e-06
1.68647e-06
1.68495e-06
1.68429e-06
1.68167e-06
1.68167e-06
1.68166e-06
1.68429e-06
1.68481e-06
1.68623e-06
1.68495e-06
1.68425e-06
1.68167e-06
1.68167e-06
1.68167e-06
1.68167e-06
1.68167e-06
1.68421e-06
1.68479e-06
1.68625e-06
1.68636e-06
1.68429e-06
1.68167e-06
1.68167e-06
1.68167e-06
1.68167e-06
1.68167e-06
1.68167e-06
1.68167e-06
1.68423e-06
1.6849e-06
1.68643e-06
1.68471e-06
1.68166e-06
1.68167e-06
1.68167e-06
1.68167e-06
1.68167e-06
1.68167e-06
1.68167e-06
1.68167e-06
1.68166e-06
1.68473e-06
1.68639e-06
1.68466e-06
1.68166e-06
1.68167e-06
1.68167e-06
1.68167e-06
1.68167e-06
1.68167e-06
1.68167e-06
1.68167e-06
1.68166e-06
1.68464e-06
1.6863e-06
1.68467e-06
1.68166e-06
1.68167e-06
1.68167e-06
1.68167e-06
1.68167e-06
1.68167e-06
1.68167e-06
1.68167e-06
1.68166e-06
1.68467e-06
1.6863e-06
1.68615e-06
1.68429e-06
1.68167e-06
1.68167e-06
1.68167e-06
1.68167e-06
1.68167e-06
1.68167e-06
1.68166e-06
1.6842e-06
1.68483e-06
1.68644e-06
1.68636e-06
1.68481e-06
1.68422e-06
1.68167e-06
1.68167e-06
1.68167e-06
1.68167e-06
1.68167e-06
1.68417e-06
1.68464e-06
1.68503e-06
1.68623e-06
1.68479e-06
1.68423e-06
1.68166e-06
1.68166e-06
1.68167e-06
1.6842e-06
1.68464e-06
1.68499e-06
1.68647e-06
1.68625e-06
1.6849e-06
1.68473e-06
1.68464e-06
1.68467e-06
1.68483e-06
1.68503e-06
1.68647e-06
1.68643e-06
1.68639e-06
1.6863e-06
1.6863e-06
1.68644e-06
1.6709e-06
1.66926e-06
1.6692e-06
1.66922e-06
1.6707e-06
1.67091e-06
1.67101e-06
1.66949e-06
1.66883e-06
1.66621e-06
1.66621e-06
1.66621e-06
1.66884e-06
1.66935e-06
1.67078e-06
1.66949e-06
1.66879e-06
1.66621e-06
1.66621e-06
1.66621e-06
1.66621e-06
1.66621e-06
1.66876e-06
1.66933e-06
1.67079e-06
1.6709e-06
1.66883e-06
1.66621e-06
1.66621e-06
1.66621e-06
1.66621e-06
1.66621e-06
1.66621e-06
1.66621e-06
1.66878e-06
1.66944e-06
1.67097e-06
1.66926e-06
1.66621e-06
1.66621e-06
1.66621e-06
1.66621e-06
1.66621e-06
1.66621e-06
1.66621e-06
1.66621e-06
1.66621e-06
1.66927e-06
1.67093e-06
1.6692e-06
1.66621e-06
1.66621e-06
1.66621e-06
1.66621e-06
1.66621e-06
1.66621e-06
1.66621e-06
1.66621e-06
1.66621e-06
1.66918e-06
1.67084e-06
1.66922e-06
1.66621e-06
1.66621e-06
1.66621e-06
1.66621e-06
1.66621e-06
1.66621e-06
1.66621e-06
1.66621e-06
1.66621e-06
1.66922e-06
1.67084e-06
1.6707e-06
1.66884e-06
1.66621e-06
1.66621e-06
1.66621e-06
1.66621e-06
1.66621e-06
1.66621e-06
1.66621e-06
1.66875e-06
1.66938e-06
1.67098e-06
1.67091e-06
1.66935e-06
1.66876e-06
1.66621e-06
1.66621e-06
1.66621e-06
1.66621e-06
1.66621e-06
1.66871e-06
1.66918e-06
1.66957e-06
1.67078e-06
1.66933e-06
1.66878e-06
1.66621e-06
1.66621e-06
1.66621e-06
1.66875e-06
1.66918e-06
1.66953e-06
1.67102e-06
1.67079e-06
1.66944e-06
1.66927e-06
1.66918e-06
1.66922e-06
1.66938e-06
1.66957e-06
1.67101e-06
1.67097e-06
1.67093e-06
1.67084e-06
1.67084e-06
1.67098e-06
1.65545e-06
1.6538e-06
1.65375e-06
1.65376e-06
1.65524e-06
1.65545e-06
1.65556e-06
1.65404e-06
1.65338e-06
1.65075e-06
1.65075e-06
1.65075e-06
1.65338e-06
1.6539e-06
1.65532e-06
1.65404e-06
1.65334e-06
1.65075e-06
1.65075e-06
1.65075e-06
1.65075e-06
1.65075e-06
1.6533e-06
1.65388e-06
1.65533e-06
1.65545e-06
1.65338e-06
1.65075e-06
1.65075e-06
1.65075e-06
1.65075e-06
1.65075e-06
1.65075e-06
1.65075e-06
1.65332e-06
1.65399e-06
1.65551e-06
1.6538e-06
1.65075e-06
1.65075e-06
1.65075e-06
1.65075e-06
1.65075e-06
1.65075e-06
1.65075e-06
1.65075e-06
1.65075e-06
1.65382e-06
1.65547e-06
1.65375e-06
1.65075e-06
1.65075e-06
1.65075e-06
1.65075e-06
1.65075e-06
1.65075e-06
1.65075e-06
1.65075e-06
1.65075e-06
1.65372e-06
1.65538e-06
1.65376e-06
1.65075e-06
1.65075e-06
1.65075e-06
1.65075e-06
1.65075e-06
1.65075e-06
1.65075e-06
1.65075e-06
1.65075e-06
1.65376e-06
1.65539e-06
1.65524e-06
1.65338e-06
1.65075e-06
1.65075e-06
1.65075e-06
1.65075e-06
1.65075e-06
1.65075e-06
1.65075e-06
1.65329e-06
1.65392e-06
1.65552e-06
1.65545e-06
1.6539e-06
1.6533e-06
1.65075e-06
1.65075e-06
1.65075e-06
1.65075e-06
1.65075e-06
1.65325e-06
1.65372e-06
1.65411e-06
1.65532e-06
1.65388e-06
1.65332e-06
1.65075e-06
1.65075e-06
1.65075e-06
1.65329e-06
1.65373e-06
1.65408e-06
1.65556e-06
1.65533e-06
1.65399e-06
1.65382e-06
1.65372e-06
1.65376e-06
1.65392e-06
1.65411e-06
1.65556e-06
1.65551e-06
1.65547e-06
1.65538e-06
1.65539e-06
1.65552e-06
1.63999e-06
1.63834e-06
1.63829e-06
1.6383e-06
1.63978e-06
1.63999e-06
1.6401e-06
1.63858e-06
1.63792e-06
1.63529e-06
1.63529e-06
1.63529e-06
1.63792e-06
1.63844e-06
1.63986e-06
1.63858e-06
1.63788e-06
1.63529e-06
1.63529e-06
1.63529e-06
1.63529e-06
1.63529e-06
1.63784e-06
1.63842e-06
1.63988e-06
1.63999e-06
1.63792e-06
1.63529e-06
1.63529e-06
1.63529e-06
1.63529e-06
1.63529e-06
1.63529e-06
1.63529e-06
1.63786e-06
1.63853e-06
1.64006e-06
1.63834e-06
1.63529e-06
1.63529e-06
1.63529e-06
1.63529e-06
1.63529e-06
1.63529e-06
1.63529e-06
1.63529e-06
1.63529e-06
1.63836e-06
1.64002e-06
1.63829e-06
1.63529e-06
1.63529e-06
1.63529e-06
1.63529e-06
1.63529e-06
1.63529e-06
1.63529e-06
1.63529e-06
1.63529e-06
1.63827e-06
1.63993e-06
1.6383e-06
1.63529e-06
1.63529e-06
1.63529e-06
1.63529e-06
1.63529e-06
1.63529e-06
1.63529e-06
1.63529e-06
1.63529e-06
1.6383e-06
1.63993e-06
1.63978e-06
1.63792e-06
1.63529e-06
1.63529e-06
1.63529e-06
1.63529e-06
1.63529e-06
1.63529e-06
1.63529e-06
1.63783e-06
1.63846e-06
1.64007e-06
1.63999e-06
1.63844e-06
1.63784e-06
1.63529e-06
1.63529e-06
1.63529e-06
1.63529e-06
1.63529e-06
1.6378e-06
1.63827e-06
1.63866e-06
1.63986e-06
1.63842e-06
1.63786e-06
1.63529e-06
1.63529e-06
1.63529e-06
1.63783e-06
1.63827e-06
1.63862e-06
1.6401e-06
1.63988e-06
1.63853e-06
1.63836e-06
1.63827e-06
1.6383e-06
1.63846e-06
1.63866e-06
1.6401e-06
1.64006e-06
1.64002e-06
1.63993e-06
1.63993e-06
1.64006e-06
1.62453e-06
1.62289e-06
1.62283e-06
1.62285e-06
1.62432e-06
1.62454e-06
1.62464e-06
1.62312e-06
1.62246e-06
1.61984e-06
1.61984e-06
1.61984e-06
1.62246e-06
1.62298e-06
1.6244e-06
1.62312e-06
1.62242e-06
1.61984e-06
1.61984e-06
1.61984e-06
1.61984e-06
1.61984e-06
1.62239e-06
1.62296e-06
1.62442e-06
1.62453e-06
1.62246e-06
1.61984e-06
1.61984e-06
1.61984e-06
1.61984e-06
1.61984e-06
1.61984e-06
1.61984e-06
1.62241e-06
1.62307e-06
1.6246e-06
1.62289e-06
1.61984e-06
1.61984e-06
1.61984e-06
1.61984e-06
1.61984e-06
1.61984e-06
1.61984e-06
1.61984e-06
1.61984e-06
1.6229e-06
1.62456e-06
1.62283e-06
1.61984e-06
1.61984e-06
1.61984e-06
1.61984e-06
1.61984e-06
1.61984e-06
1.61984e-06
1.61984e-06
1.61984e-06
1.62281e-06
1.62447e-06
1.62285e-06
1.61984e-06
1.61984e-06
1.61984e-06
1.61984e-06
1.61984e-06
1.61984e-06
1.61984e-06
1.61984e-06
1.61984e-06
1.62285e-06
1.62447e-06
1.62432e-06
1.62246e-06
1.61984e-06
1.61984e-06
1.61984e-06
1.61984e-06
1.61984e-06
1.61984e-06
1.61984e-06
1.62238e-06
1.623e-06
1.62461e-06
1.62454e-06
1.62298e-06
1.62239e-06
1.61984e-06
1.61984e-06
1.61984e-06
1.61984e-06
1.61984e-06
1.62234e-06
1.62281e-06
1.6232e-06
1.6244e-06
1.62296e-06
1.62241e-06
1.61984e-06
1.61984e-06
1.61984e-06
1.62238e-06
1.62281e-06
1.62316e-06
1.62465e-06
1.62442e-06
1.62307e-06
1.6229e-06
1.62281e-06
1.62285e-06
1.623e-06
1.6232e-06
1.62465e-06
1.6246e-06
1.62456e-06
1.62447e-06
1.62447e-06
1.62461e-06
1.60908e-06
1.60743e-06
1.60738e-06
1.60739e-06
1.60887e-06
1.60908e-06
1.60919e-06
1.60766e-06
1.60701e-06
1.60438e-06
1.60438e-06
1.60438e-06
1.60701e-06
1.60753e-06
1.60895e-06
1.60766e-06
1.60697e-06
1.60438e-06
1.60438e-06
1.60438e-06
1.60438e-06
1.60438e-06
1.60693e-06
1.60751e-06
1.60896e-06
1.60908e-06
1.60701e-06
1.60438e-06
1.60438e-06
1.60438e-06
1.60438e-06
1.60438e-06
1.60438e-06
1.60438e-06
1.60695e-06
1.60762e-06
1.60914e-06
1.60743e-06
1.60438e-06
1.60438e-06
1.60438e-06
1.60438e-06
1.60438e-06
1.60438e-06
1.60438e-06
1.60438e-06
1.60438e-06
1.60745e-06
1.6091e-06
1.60738e-06
1.60438e-06
1.60438e-06
1.60438e-06
1.60438e-06
1.60438e-06
1.60438e-06
1.60438e-06
1.60438e-06
1.60438e-06
1.60735e-06
1.60901e-06
1.60739e-06
1.60438e-06
1.60438e-06
1.60438e-06
1.60438e-06
1.60438e-06
1.60438e-06
1.60438e-06
1.60438e-06
1.60438e-06
1.60739e-06
1.60902e-06
1.60887e-06
1.60701e-06
1.60438e-06
1.60438e-06
1.60438e-06
1.60438e-06
1.60438e-06
1.60438e-06
1.60438e-06
1.60692e-06
1.60755e-06
1.60915e-06
1.60908e-06
1.60753e-06
1.60693e-06
1.60438e-06
1.60438e-06
1.60438e-06
1.60438e-06
1.60438e-06
1.60688e-06
1.60735e-06
1.60774e-06
1.60895e-06
1.60751e-06
1.60695e-06
1.60438e-06
1.60438e-06
1.60438e-06
1.60692e-06
1.60735e-06
1.60771e-06
1.60919e-06
1.60896e-06
1.60762e-06
1.60745e-06
1.60735e-06
1.60739e-06
1.60755e-06
1.60774e-06
1.60919e-06
1.60914e-06
1.6091e-06
1.60901e-06
1.60902e-06
1.60915e-06
1.59362e-06
1.59197e-06
1.59192e-06
1.59193e-06
1.59341e-06
1.59362e-06
1.59373e-06
1.59221e-06
1.59155e-06
1.58892e-06
1.58892e-06
1.58892e-06
1.59155e-06
1.59207e-06
1.59349e-06
1.59221e-06
1.59151e-06
1.58892e-06
1.58892e-06
1.58892e-06
1.58892e-06
1.58892e-06
1.59147e-06
1.59205e-06
1.59351e-06
1.59362e-06
1.59155e-06
1.58892e-06
1.58892e-06
1.58892e-06
1.58892e-06
1.58892e-06
1.58892e-06
1.58892e-06
1.59149e-06
1.59216e-06
1.59368e-06
1.59197e-06
1.58892e-06
1.58892e-06
1.58892e-06
1.58892e-06
1.58892e-06
1.58892e-06
1.58892e-06
1.58892e-06
1.58892e-06
1.59199e-06
1.59365e-06
1.59192e-06
1.58892e-06
1.58892e-06
1.58892e-06
1.58892e-06
1.58892e-06
1.58892e-06
1.58892e-06
1.58892e-06
1.58892e-06
1.5919e-06
1.59356e-06
1.59193e-06
1.58892e-06
1.58892e-06
1.58892e-06
1.58892e-06
1.58892e-06
1.58892e-06
1.58892e-06
1.58892e-06
1.58892e-06
1.59193e-06
1.59356e-06
1.59341e-06
1.59155e-06
1.58892e-06
1.58892e-06
1.58892e-06
1.58892e-06
1.58892e-06
1.58892e-06
1.58892e-06
1.59146e-06
1.59209e-06
1.59369e-06
1.59362e-06
1.59207e-06
1.59147e-06
1.58892e-06
1.58892e-06
1.58892e-06
1.58892e-06
1.58892e-06
1.59142e-06
1.5919e-06
1.59229e-06
1.59349e-06
1.59205e-06
1.59149e-06
1.58892e-06
1.58892e-06
1.58892e-06
1.59146e-06
1.5919e-06
1.59225e-06
1.59373e-06
1.59351e-06
1.59216e-06
1.59199e-06
1.5919e-06
1.59193e-06
1.59209e-06
1.59229e-06
1.59373e-06
1.59368e-06
1.59365e-06
1.59356e-06
1.59356e-06
1.59369e-06
1.57816e-06
1.57652e-06
1.57646e-06
1.57648e-06
1.57795e-06
1.57817e-06
1.57827e-06
1.57675e-06
1.57609e-06
1.57347e-06
1.57347e-06
1.57347e-06
1.57609e-06
1.57661e-06
1.57803e-06
1.57675e-06
1.57605e-06
1.57347e-06
1.57347e-06
1.57347e-06
1.57347e-06
1.57347e-06
1.57602e-06
1.57659e-06
1.57805e-06
1.57816e-06
1.57609e-06
1.57347e-06
1.57347e-06
1.57347e-06
1.57347e-06
1.57347e-06
1.57347e-06
1.57347e-06
1.57604e-06
1.5767e-06
1.57823e-06
1.57652e-06
1.57347e-06
1.57347e-06
1.57347e-06
1.57347e-06
1.57347e-06
1.57347e-06
1.57347e-06
1.57347e-06
1.57347e-06
1.57653e-06
1.57819e-06
1.57646e-06
1.57347e-06
1.57347e-06
1.57347e-06
1.57347e-06
1.57347e-06
1.57347e-06
1.57347e-06
1.57347e-06
1.57347e-06
1.57644e-06
1.5781e-06
1.57648e-06
1.57347e-06
1.57347e-06
1.57347e-06
1.57347e-06
1.57347e-06
1.57347e-06
1.57347e-06
1.57347e-06
1.57347e-06
1.57648e-06
1.5781e-06
1.57795e-06
1.57609e-06
1.57347e-06
1.57347e-06
1.57347e-06
1.57347e-06
1.57347e-06
1.57347e-06
1.57347e-06
1.57601e-06
1.57663e-06
1.57824e-06
1.57817e-06
1.57661e-06
1.57602e-06
1.57347e-06
1.57347e-06
1.57347e-06
1.57347e-06
1.57347e-06
1.57597e-06
1.57644e-06
1.57683e-06
1.57803e-06
1.57659e-06
1.57604e-06
1.57347e-06
1.57347e-06
1.57347e-06
1.57601e-06
1.57644e-06
1.57679e-06
1.57827e-06
1.57805e-06
1.5767e-06
1.57653e-06
1.57644e-06
1.57648e-06
1.57663e-06
1.57683e-06
1.57827e-06
1.57823e-06
1.57819e-06
1.5781e-06
1.5781e-06
1.57824e-06
1.56271e-06
1.56106e-06
1.56101e-06
1.56102e-06
1.5625e-06
1.56271e-06
1.56281e-06
1.56129e-06
1.56064e-06
1.55801e-06
1.55801e-06
1.55801e-06
1.56064e-06
1.56116e-06
1.56258e-06
1.56129e-06
1.5606e-06
1.55801e-06
1.55801e-06
1.55801e-06
1.55801e-06
1.55801e-06
1.56056e-06
1.56113e-06
1.56259e-06
1.56271e-06
1.56064e-06
1.55801e-06
1.55801e-06
1.55801e-06
1.55801e-06
1.55801e-06
1.55801e-06
1.55801e-06
1.56058e-06
1.56125e-06
1.56277e-06
1.56106e-06
1.55801e-06
1.55801e-06
1.55801e-06
1.55801e-06
1.55801e-06
1.55801e-06
1.55801e-06
1.55801e-06
1.55801e-06
1.56108e-06
1.56273e-06
1.56101e-06
1.55801e-06
1.55801e-06
1.55801e-06
1.55801e-06
1.55801e-06
1.55801e-06
1.55801e-06
1.55801e-06
1.55801e-06
1.56098e-06
1.56264e-06
1.56102e-06
1.55801e-06
1.55801e-06
1.55801e-06
1.55801e-06
1.55801e-06
1.55801e-06
1.55801e-06
1.55801e-06
1.55801e-06
1.56102e-06
1.56264e-06
1.5625e-06
1.56064e-06
1.55801e-06
1.55801e-06
1.55801e-06
1.55801e-06
1.55801e-06
1.55801e-06
1.55801e-06
1.56055e-06
1.56118e-06
1.56278e-06
1.56271e-06
1.56116e-06
1.56056e-06
1.55801e-06
1.55801e-06
1.55801e-06
1.55801e-06
1.55801e-06
1.56051e-06
1.56098e-06
1.56137e-06
1.56258e-06
1.56113e-06
1.56058e-06
1.55801e-06
1.55801e-06
1.55801e-06
1.56055e-06
1.56098e-06
1.56133e-06
1.56282e-06
1.56259e-06
1.56125e-06
1.56108e-06
1.56098e-06
1.56102e-06
1.56118e-06
1.56137e-06
1.56282e-06
1.56277e-06
1.56273e-06
1.56264e-06
1.56264e-06
1.56278e-06
1.54725e-06
1.5456e-06
1.54555e-06
1.54556e-06
1.54704e-06
1.54725e-06
1.54736e-06
1.54584e-06
1.54518e-06
1.54255e-06
1.54255e-06
1.54255e-06
1.54518e-06
1.5457e-06
1.54712e-06
1.54584e-06
1.54514e-06
1.54255e-06
1.54255e-06
1.54255e-06
1.54255e-06
1.54255e-06
1.5451e-06
1.54568e-06
1.54714e-06
1.54725e-06
1.54518e-06
1.54255e-06
1.54255e-06
1.54255e-06
1.54255e-06
1.54255e-06
1.54255e-06
1.54255e-06
1.54512e-06
1.54579e-06
1.54731e-06
1.5456e-06
1.54255e-06
1.54255e-06
1.54255e-06
1.54255e-06
1.54255e-06
1.54255e-06
1.54255e-06
1.54255e-06
1.54255e-06
1.54562e-06
1.54728e-06
1.54555e-06
1.54255e-06
1.54255e-06
1.54255e-06
1.54255e-06
1.54255e-06
1.54255e-06
1.54255e-06
1.54255e-06
1.54255e-06
1.54553e-06
1.54719e-06
1.54556e-06
1.54255e-06
1.54255e-06
1.54255e-06
1.54255e-06
1.54255e-06
1.54255e-06
1.54255e-06
1.54255e-06
1.54255e-06
1.54556e-06
1.54719e-06
1.54704e-06
1.54518e-06
1.54255e-06
1.54255e-06
1.54255e-06
1.54255e-06
1.54255e-06
1.54255e-06
1.54255e-06
1.54509e-06
1.54572e-06
1.54732e-06
1.54725e-06
1.5457e-06
1.5451e-06
1.54255e-06
1.54255e-06
1.54255e-06
1.54255e-06
1.54255e-06
1.54505e-06
1.54553e-06
1.54591e-06
1.54712e-06
1.54568e-06
1.54512e-06
1.54255e-06
1.54255e-06
1.54255e-06
1.54509e-06
1.54553e-06
1.54588e-06
1.54736e-06
1.54714e-06
1.54579e-06
1.54562e-06
1.54553e-06
1.54556e-06
1.54572e-06
1.54591e-06
1.54736e-06
1.54731e-06
1.54728e-06
1.54719e-06
1.54719e-06
1.54732e-06
1.53179e-06
1.53015e-06
1.53009e-06
1.53011e-06
1.53158e-06
1.5318e-06
1.5319e-06
1.53038e-06
1.52972e-06
1.5271e-06
1.5271e-06
1.5271e-06
1.52972e-06
1.53024e-06
1.53166e-06
1.53038e-06
1.52968e-06
1.5271e-06
1.5271e-06
1.5271e-06
1.5271e-06
1.5271e-06
1.52965e-06
1.53022e-06
1.53168e-06
1.53179e-06
1.52972e-06
1.5271e-06
1.5271e-06
1.5271e-06
1.5271e-06
1.5271e-06
1.5271e-06
1.5271e-06
1.52967e-06
1.53033e-06
1.53186e-06
1.53015e-06
1.5271e-06
1.5271e-06
1.5271e-06
1.5271e-06
1.5271e-06
1.5271e-06
1.5271e-06
1.5271e-06
1.5271e-06
1.53016e-06
1.53182e-06
1.53009e-06
1.5271e-06
1.5271e-06
1.5271e-06
1.5271e-06
1.5271e-06
1.5271e-06
1.5271e-06
1.5271e-06
1.5271e-06
1.53007e-06
1.53173e-06
1.53011e-06
1.5271e-06
1.5271e-06
1.5271e-06
1.5271e-06
1.5271e-06
1.5271e-06