/*--------------------------------*- C++ -*----------------------------------*\
| =========                 |                                                 |
| \\      /  F ield         | OpenFOAM: The Open Source CFD Toolbox           |
|  \\    /   O peration     | Version:  v2012                                 |
|   \\  /    A nd           | Website:  www.openfoam.com                      |
|    \\/     M anipulation  |                                                 |
\*---------------------------------------------------------------------------*/
FoamFile
{
    version     2.0;
    format      ascii;
    class       volScalarField;
    location    "29";
    object      p;
}
// * * * * * * * * * * * * * * * * * * * * * * * * * * * * * * * * * * * * * //

dimensions      [0 2 -2 0 0 0 0];


internalField   nonuniform List<scalar> 
292667
(
1.44163e-06
1.43089e-06
1.42996e-06
1.43006e-06
1.43136e-06
1.4426e-06
1.4311e-06
1.42781e-06
1.42591e-06
1.42514e-06
1.42524e-06
1.42626e-06
1.42846e-06
1.43209e-06
1.4311e-06
1.42684e-06
1.42424e-06
1.42282e-06
1.42222e-06
1.4223e-06
1.42308e-06
1.42474e-06
1.4277e-06
1.43238e-06
1.44163e-06
1.42781e-06
1.42424e-06
1.42215e-06
1.42098e-06
1.42048e-06
1.42055e-06
1.4212e-06
1.42256e-06
1.42495e-06
1.42898e-06
1.44169e-06
1.43089e-06
1.42591e-06
1.42282e-06
1.42098e-06
1.41994e-06
1.41949e-06
1.41955e-06
1.42014e-06
1.42135e-06
1.42344e-06
1.42697e-06
1.43533e-06
1.42996e-06
1.42514e-06
1.42222e-06
1.42048e-06
1.41949e-06
1.41906e-06
1.41912e-06
1.41968e-06
1.42083e-06
1.42281e-06
1.42615e-06
1.43329e-06
1.43006e-06
1.42524e-06
1.4223e-06
1.42055e-06
1.41955e-06
1.41912e-06
1.41918e-06
1.41974e-06
1.42091e-06
1.4229e-06
1.42626e-06
1.43364e-06
1.43136e-06
1.42626e-06
1.42308e-06
1.4212e-06
1.42014e-06
1.41968e-06
1.41974e-06
1.42034e-06
1.42158e-06
1.42373e-06
1.42736e-06
1.4357e-06
1.4426e-06
1.42846e-06
1.42474e-06
1.42256e-06
1.42135e-06
1.42083e-06
1.42091e-06
1.42158e-06
1.423e-06
1.4255e-06
1.42969e-06
1.44176e-06
1.43209e-06
1.4277e-06
1.42495e-06
1.42344e-06
1.42281e-06
1.4229e-06
1.42373e-06
1.4255e-06
1.42865e-06
1.4362e-06
1.43238e-06
1.42898e-06
1.42697e-06
1.42615e-06
1.42626e-06
1.42736e-06
1.42969e-06
1.4362e-06
1.44169e-06
1.43532e-06
1.43329e-06
1.43364e-06
1.4357e-06
1.44176e-06
1.41036e-06
1.40912e-06
1.4091e-06
1.40913e-06
1.41022e-06
1.41019e-06
1.41043e-06
1.40945e-06
1.409e-06
1.40717e-06
1.40714e-06
1.40716e-06
1.40912e-06
1.40941e-06
1.41037e-06
1.40945e-06
1.40902e-06
1.40722e-06
1.40713e-06
1.40718e-06
1.40713e-06
1.40722e-06
1.40908e-06
1.40938e-06
1.41034e-06
1.41036e-06
1.409e-06
1.40722e-06
1.40714e-06
1.40718e-06
1.40717e-06
1.40718e-06
1.40714e-06
1.40722e-06
1.40907e-06
1.4094e-06
1.41046e-06
1.40912e-06
1.40717e-06
1.40713e-06
1.40718e-06
1.40715e-06
1.40714e-06
1.40715e-06
1.40718e-06
1.40713e-06
1.40717e-06
1.40948e-06
1.41051e-06
1.4091e-06
1.40714e-06
1.40718e-06
1.40717e-06
1.40714e-06
1.40714e-06
1.40714e-06
1.40717e-06
1.40718e-06
1.40714e-06
1.40945e-06
1.4103e-06
1.40913e-06
1.40716e-06
1.40713e-06
1.40718e-06
1.40715e-06
1.40714e-06
1.40715e-06
1.40718e-06
1.40713e-06
1.40716e-06
1.40947e-06
1.41035e-06
1.41022e-06
1.40912e-06
1.40722e-06
1.40714e-06
1.40718e-06
1.40717e-06
1.40718e-06
1.40714e-06
1.40722e-06
1.40916e-06
1.40942e-06
1.4105e-06
1.41019e-06
1.40941e-06
1.40908e-06
1.40722e-06
1.40713e-06
1.40718e-06
1.40713e-06
1.40722e-06
1.40913e-06
1.40937e-06
1.40947e-06
1.41037e-06
1.40938e-06
1.40907e-06
1.40717e-06
1.40714e-06
1.40716e-06
1.40916e-06
1.40937e-06
1.40954e-06
1.41051e-06
1.41034e-06
1.4094e-06
1.40948e-06
1.40945e-06
1.40947e-06
1.40942e-06
1.40947e-06
1.41051e-06
1.41047e-06
1.41051e-06
1.4103e-06
1.41035e-06
1.4105e-06
1.39832e-06
1.39716e-06
1.39708e-06
1.39713e-06
1.39824e-06
1.39834e-06
1.39838e-06
1.39734e-06
1.39683e-06
1.39501e-06
1.39501e-06
1.39501e-06
1.39696e-06
1.39732e-06
1.39828e-06
1.39734e-06
1.39683e-06
1.39507e-06
1.39506e-06
1.3951e-06
1.39506e-06
1.39507e-06
1.39695e-06
1.39731e-06
1.39829e-06
1.39832e-06
1.39683e-06
1.39507e-06
1.39508e-06
1.39514e-06
1.39515e-06
1.39514e-06
1.39508e-06
1.39507e-06
1.39694e-06
1.39737e-06
1.39838e-06
1.39716e-06
1.39501e-06
1.39506e-06
1.39515e-06
1.39516e-06
1.39518e-06
1.39516e-06
1.39515e-06
1.39506e-06
1.39501e-06
1.39737e-06
1.39846e-06
1.39708e-06
1.39501e-06
1.3951e-06
1.39515e-06
1.39518e-06
1.39519e-06
1.39518e-06
1.39515e-06
1.3951e-06
1.39501e-06
1.39735e-06
1.39843e-06
1.39713e-06
1.39501e-06
1.39506e-06
1.39515e-06
1.39516e-06
1.39518e-06
1.39516e-06
1.39515e-06
1.39506e-06
1.39501e-06
1.39736e-06
1.39844e-06
1.39824e-06
1.39696e-06
1.39507e-06
1.39508e-06
1.39515e-06
1.39515e-06
1.39515e-06
1.39508e-06
1.39507e-06
1.39708e-06
1.39738e-06
1.39848e-06
1.39834e-06
1.39732e-06
1.39695e-06
1.39507e-06
1.39506e-06
1.3951e-06
1.39506e-06
1.39507e-06
1.39706e-06
1.39729e-06
1.39746e-06
1.39828e-06
1.39731e-06
1.39694e-06
1.39501e-06
1.39501e-06
1.39501e-06
1.39708e-06
1.39729e-06
1.39744e-06
1.39847e-06
1.39829e-06
1.39737e-06
1.39737e-06
1.39735e-06
1.39736e-06
1.39738e-06
1.39746e-06
1.39847e-06
1.39838e-06
1.39846e-06
1.39843e-06
1.39844e-06
1.39848e-06
1.38638e-06
1.3852e-06
1.38512e-06
1.38517e-06
1.38629e-06
1.3864e-06
1.38643e-06
1.38537e-06
1.38483e-06
1.383e-06
1.383e-06
1.383e-06
1.38495e-06
1.38535e-06
1.38634e-06
1.38537e-06
1.38481e-06
1.38303e-06
1.38303e-06
1.38306e-06
1.38303e-06
1.38303e-06
1.38494e-06
1.38534e-06
1.38634e-06
1.38638e-06
1.38483e-06
1.38303e-06
1.38305e-06
1.3831e-06
1.3831e-06
1.3831e-06
1.38305e-06
1.38303e-06
1.38495e-06
1.38542e-06
1.38644e-06
1.3852e-06
1.383e-06
1.38303e-06
1.3831e-06
1.38312e-06
1.38313e-06
1.38312e-06
1.3831e-06
1.38303e-06
1.383e-06
1.3854e-06
1.38651e-06
1.38512e-06
1.383e-06
1.38306e-06
1.3831e-06
1.38313e-06
1.38314e-06
1.38313e-06
1.3831e-06
1.38306e-06
1.383e-06
1.38537e-06
1.38649e-06
1.38517e-06
1.383e-06
1.38303e-06
1.3831e-06
1.38312e-06
1.38313e-06
1.38312e-06
1.3831e-06
1.38303e-06
1.383e-06
1.38539e-06
1.38649e-06
1.38629e-06
1.38495e-06
1.38303e-06
1.38305e-06
1.3831e-06
1.3831e-06
1.3831e-06
1.38305e-06
1.38303e-06
1.3851e-06
1.38543e-06
1.38653e-06
1.3864e-06
1.38535e-06
1.38494e-06
1.38303e-06
1.38303e-06
1.38306e-06
1.38304e-06
1.38303e-06
1.38507e-06
1.38533e-06
1.38551e-06
1.38634e-06
1.38534e-06
1.38495e-06
1.383e-06
1.383e-06
1.383e-06
1.3851e-06
1.38533e-06
1.38549e-06
1.38653e-06
1.38634e-06
1.38542e-06
1.3854e-06
1.38537e-06
1.38539e-06
1.38543e-06
1.38551e-06
1.38653e-06
1.38644e-06
1.38651e-06
1.38649e-06
1.38649e-06
1.38653e-06
1.37443e-06
1.37324e-06
1.37316e-06
1.37321e-06
1.37434e-06
1.37445e-06
1.37449e-06
1.37341e-06
1.37286e-06
1.37102e-06
1.37102e-06
1.37102e-06
1.37298e-06
1.37339e-06
1.37439e-06
1.37341e-06
1.37283e-06
1.37103e-06
1.37104e-06
1.37106e-06
1.37104e-06
1.37103e-06
1.37296e-06
1.37338e-06
1.3744e-06
1.37443e-06
1.37286e-06
1.37103e-06
1.37105e-06
1.37108e-06
1.37108e-06
1.37108e-06
1.37105e-06
1.37103e-06
1.37298e-06
1.37347e-06
1.37449e-06
1.37324e-06
1.37102e-06
1.37104e-06
1.37108e-06
1.3711e-06
1.37111e-06
1.3711e-06
1.37108e-06
1.37104e-06
1.37102e-06
1.37344e-06
1.37457e-06
1.37316e-06
1.37102e-06
1.37106e-06
1.37108e-06
1.37111e-06
1.37111e-06
1.37111e-06
1.37108e-06
1.37106e-06
1.37102e-06
1.37341e-06
1.37454e-06
1.37321e-06
1.37102e-06
1.37104e-06
1.37108e-06
1.3711e-06
1.37111e-06
1.3711e-06
1.37108e-06
1.37104e-06
1.37102e-06
1.37343e-06
1.37454e-06
1.37434e-06
1.37298e-06
1.37103e-06
1.37105e-06
1.37108e-06
1.37108e-06
1.37108e-06
1.37105e-06
1.37103e-06
1.37314e-06
1.37348e-06
1.37459e-06
1.37445e-06
1.37339e-06
1.37296e-06
1.37103e-06
1.37104e-06
1.37106e-06
1.37104e-06
1.37103e-06
1.3731e-06
1.37337e-06
1.37356e-06
1.37439e-06
1.37338e-06
1.37298e-06
1.37102e-06
1.37102e-06
1.37102e-06
1.37314e-06
1.37337e-06
1.37354e-06
1.37458e-06
1.3744e-06
1.37347e-06
1.37344e-06
1.37341e-06
1.37343e-06
1.37348e-06
1.37356e-06
1.37458e-06
1.37449e-06
1.37457e-06
1.37454e-06
1.37454e-06
1.37459e-06
1.36247e-06
1.36129e-06
1.36121e-06
1.36126e-06
1.36239e-06
1.3625e-06
1.36253e-06
1.36146e-06
1.3609e-06
1.35905e-06
1.35905e-06
1.35905e-06
1.36102e-06
1.36143e-06
1.36244e-06
1.36146e-06
1.36087e-06
1.35906e-06
1.35907e-06
1.35907e-06
1.35907e-06
1.35906e-06
1.361e-06
1.36143e-06
1.36244e-06
1.36247e-06
1.3609e-06
1.35906e-06
1.35907e-06
1.35909e-06
1.35909e-06
1.35909e-06
1.35907e-06
1.35906e-06
1.36102e-06
1.36151e-06
1.36254e-06
1.36129e-06
1.35905e-06
1.35907e-06
1.35909e-06
1.3591e-06
1.3591e-06
1.3591e-06
1.35909e-06
1.35907e-06
1.35905e-06
1.36149e-06
1.36261e-06
1.36121e-06
1.35905e-06
1.35907e-06
1.35909e-06
1.3591e-06
1.35911e-06
1.3591e-06
1.35909e-06
1.35907e-06
1.35905e-06
1.36146e-06
1.36259e-06
1.36126e-06
1.35905e-06
1.35907e-06
1.35909e-06
1.3591e-06
1.3591e-06
1.3591e-06
1.35909e-06
1.35907e-06
1.35905e-06
1.36147e-06
1.36259e-06
1.36239e-06
1.36102e-06
1.35906e-06
1.35907e-06
1.35909e-06
1.35909e-06
1.35909e-06
1.35907e-06
1.35906e-06
1.36118e-06
1.36152e-06
1.36263e-06
1.3625e-06
1.36143e-06
1.361e-06
1.35906e-06
1.35907e-06
1.35907e-06
1.35907e-06
1.35906e-06
1.36114e-06
1.36141e-06
1.36161e-06
1.36244e-06
1.36143e-06
1.36102e-06
1.35905e-06
1.35905e-06
1.35905e-06
1.36118e-06
1.36141e-06
1.36158e-06
1.36263e-06
1.36244e-06
1.36151e-06
1.36149e-06
1.36146e-06
1.36147e-06
1.36152e-06
1.36161e-06
1.36263e-06
1.36254e-06
1.36261e-06
1.36259e-06
1.36259e-06
1.36263e-06
1.35052e-06
1.34933e-06
1.34925e-06
1.3493e-06
1.35044e-06
1.35054e-06
1.35058e-06
1.3495e-06
1.34894e-06
1.34709e-06
1.34709e-06
1.34709e-06
1.34907e-06
1.34948e-06
1.35048e-06
1.3495e-06
1.34891e-06
1.3471e-06
1.3471e-06
1.3471e-06
1.3471e-06
1.3471e-06
1.34904e-06
1.34947e-06
1.35049e-06
1.35052e-06
1.34894e-06
1.3471e-06
1.3471e-06
1.34711e-06
1.34711e-06
1.34711e-06
1.3471e-06
1.3471e-06
1.34906e-06
1.34956e-06
1.35058e-06
1.34933e-06
1.34709e-06
1.3471e-06
1.34711e-06
1.34712e-06
1.34712e-06
1.34712e-06
1.34711e-06
1.3471e-06
1.34709e-06
1.34953e-06
1.35066e-06
1.34925e-06
1.34709e-06
1.34711e-06
1.34711e-06
1.34712e-06
1.34713e-06
1.34712e-06
1.34711e-06
1.34711e-06
1.34709e-06
1.3495e-06
1.35063e-06
1.3493e-06
1.34709e-06
1.3471e-06
1.34711e-06
1.34712e-06
1.34712e-06
1.34712e-06
1.34711e-06
1.3471e-06
1.34709e-06
1.34952e-06
1.35064e-06
1.35044e-06
1.34907e-06
1.3471e-06
1.3471e-06
1.34711e-06
1.34711e-06
1.34711e-06
1.3471e-06
1.3471e-06
1.34922e-06
1.34957e-06
1.35068e-06
1.35054e-06
1.34948e-06
1.34904e-06
1.3471e-06
1.3471e-06
1.34711e-06
1.3471e-06
1.3471e-06
1.34918e-06
1.34946e-06
1.34966e-06
1.35048e-06
1.34947e-06
1.34906e-06
1.34709e-06
1.34709e-06
1.34709e-06
1.34922e-06
1.34946e-06
1.34963e-06
1.35068e-06
1.35049e-06
1.34956e-06
1.34953e-06
1.3495e-06
1.34952e-06
1.34957e-06
1.34966e-06
1.35068e-06
1.35058e-06
1.35066e-06
1.35063e-06
1.35064e-06
1.35068e-06
1.33857e-06
1.33738e-06
1.3373e-06
1.33735e-06
1.33848e-06
1.33859e-06
1.33863e-06
1.33755e-06
1.33698e-06
1.33514e-06
1.33514e-06
1.33514e-06
1.33711e-06
1.33752e-06
1.33853e-06
1.33755e-06
1.33695e-06
1.33514e-06
1.33514e-06
1.33514e-06
1.33514e-06
1.33514e-06
1.33708e-06
1.33752e-06
1.33854e-06
1.33857e-06
1.33698e-06
1.33514e-06
1.33514e-06
1.33515e-06
1.33515e-06
1.33515e-06
1.33514e-06
1.33514e-06
1.3371e-06
1.3376e-06
1.33863e-06
1.33738e-06
1.33514e-06
1.33514e-06
1.33515e-06
1.33515e-06
1.33515e-06
1.33515e-06
1.33515e-06
1.33514e-06
1.33514e-06
1.33758e-06
1.3387e-06
1.3373e-06
1.33514e-06
1.33514e-06
1.33515e-06
1.33515e-06
1.33515e-06
1.33515e-06
1.33515e-06
1.33514e-06
1.33514e-06
1.33755e-06
1.33868e-06
1.33735e-06
1.33514e-06
1.33514e-06
1.33515e-06
1.33515e-06
1.33515e-06
1.33515e-06
1.33515e-06
1.33514e-06
1.33514e-06
1.33756e-06
1.33868e-06
1.33848e-06
1.33711e-06
1.33514e-06
1.33514e-06
1.33515e-06
1.33515e-06
1.33515e-06
1.33514e-06
1.33514e-06
1.33727e-06
1.33761e-06
1.33872e-06
1.33859e-06
1.33752e-06
1.33708e-06
1.33514e-06
1.33514e-06
1.33514e-06
1.33514e-06
1.33514e-06
1.33723e-06
1.3375e-06
1.3377e-06
1.33853e-06
1.33752e-06
1.3371e-06
1.33514e-06
1.33514e-06
1.33514e-06
1.33727e-06
1.3375e-06
1.33768e-06
1.33872e-06
1.33854e-06
1.3376e-06
1.33758e-06
1.33755e-06
1.33756e-06
1.33761e-06
1.3377e-06
1.33872e-06
1.33863e-06
1.3387e-06
1.33868e-06
1.33868e-06
1.33872e-06
1.32661e-06
1.32542e-06
1.32534e-06
1.32539e-06
1.32653e-06
1.32663e-06
1.32667e-06
1.32559e-06
1.32503e-06
1.32318e-06
1.32318e-06
1.32318e-06
1.32516e-06
1.32557e-06
1.32658e-06
1.32559e-06
1.325e-06
1.32318e-06
1.32318e-06
1.32318e-06
1.32318e-06
1.32318e-06
1.32513e-06
1.32556e-06
1.32658e-06
1.32661e-06
1.32503e-06
1.32318e-06
1.32318e-06
1.32319e-06
1.32319e-06
1.32319e-06
1.32318e-06
1.32318e-06
1.32515e-06
1.32565e-06
1.32667e-06
1.32542e-06
1.32318e-06
1.32318e-06
1.32319e-06
1.32319e-06
1.32319e-06
1.32319e-06
1.32319e-06
1.32318e-06
1.32318e-06
1.32562e-06
1.32675e-06
1.32534e-06
1.32318e-06
1.32318e-06
1.32319e-06
1.32319e-06
1.32319e-06
1.32319e-06
1.32319e-06
1.32318e-06
1.32318e-06
1.32559e-06
1.32672e-06
1.32539e-06
1.32318e-06
1.32318e-06
1.32319e-06
1.32319e-06
1.32319e-06
1.32319e-06
1.32319e-06
1.32318e-06
1.32318e-06
1.32561e-06
1.32673e-06
1.32653e-06
1.32516e-06
1.32318e-06
1.32318e-06
1.32319e-06
1.32319e-06
1.32319e-06
1.32318e-06
1.32318e-06
1.32531e-06
1.32566e-06
1.32677e-06
1.32663e-06
1.32557e-06
1.32513e-06
1.32318e-06
1.32318e-06
1.32318e-06
1.32318e-06
1.32318e-06
1.32527e-06
1.32555e-06
1.32575e-06
1.32658e-06
1.32556e-06
1.32515e-06
1.32318e-06
1.32318e-06
1.32318e-06
1.32531e-06
1.32555e-06
1.32572e-06
1.32677e-06
1.32658e-06
1.32565e-06
1.32562e-06
1.32559e-06
1.32561e-06
1.32566e-06
1.32575e-06
1.32677e-06
1.32667e-06
1.32675e-06
1.32672e-06
1.32673e-06
1.32677e-06
1.31466e-06
1.31347e-06
1.31339e-06
1.31344e-06
1.31457e-06
1.31468e-06
1.31472e-06
1.31363e-06
1.31307e-06
1.31122e-06
1.31122e-06
1.31122e-06
1.3132e-06
1.31361e-06
1.31462e-06
1.31363e-06
1.31304e-06
1.31122e-06
1.31123e-06
1.31123e-06
1.31123e-06
1.31122e-06
1.31317e-06
1.3136e-06
1.31463e-06
1.31466e-06
1.31307e-06
1.31122e-06
1.31123e-06
1.31123e-06
1.31123e-06
1.31123e-06
1.31123e-06
1.31122e-06
1.31319e-06
1.31369e-06
1.31472e-06
1.31347e-06
1.31122e-06
1.31123e-06
1.31123e-06
1.31123e-06
1.31123e-06
1.31123e-06
1.31123e-06
1.31123e-06
1.31122e-06
1.31367e-06
1.31479e-06
1.31339e-06
1.31122e-06
1.31123e-06
1.31123e-06
1.31123e-06
1.31123e-06
1.31123e-06
1.31123e-06
1.31123e-06
1.31122e-06
1.31364e-06
1.31477e-06
1.31344e-06
1.31122e-06
1.31123e-06
1.31123e-06
1.31123e-06
1.31123e-06
1.31123e-06
1.31123e-06
1.31123e-06
1.31122e-06
1.31365e-06
1.31477e-06
1.31457e-06
1.3132e-06
1.31122e-06
1.31123e-06
1.31123e-06
1.31123e-06
1.31123e-06
1.31123e-06
1.31122e-06
1.31336e-06
1.3137e-06
1.31481e-06
1.31468e-06
1.31361e-06
1.31317e-06
1.31122e-06
1.31123e-06
1.31123e-06
1.31123e-06
1.31122e-06
1.31332e-06
1.31359e-06
1.31379e-06
1.31462e-06
1.3136e-06
1.31319e-06
1.31122e-06
1.31122e-06
1.31122e-06
1.31336e-06
1.31359e-06
1.31377e-06
1.31481e-06
1.31463e-06
1.31369e-06
1.31367e-06
1.31364e-06
1.31365e-06
1.3137e-06
1.31379e-06
1.31481e-06
1.31472e-06
1.31479e-06
1.31477e-06
1.31477e-06
1.31481e-06
1.3027e-06
1.30151e-06
1.30143e-06
1.30148e-06
1.30262e-06
1.30272e-06
1.30276e-06
1.30168e-06
1.30112e-06
1.29927e-06
1.29927e-06
1.29927e-06
1.30124e-06
1.30165e-06
1.30266e-06
1.30168e-06
1.30109e-06
1.29927e-06
1.29927e-06
1.29927e-06
1.29927e-06
1.29927e-06
1.30121e-06
1.30165e-06
1.30267e-06
1.3027e-06
1.30112e-06
1.29927e-06
1.29927e-06
1.29927e-06
1.29927e-06
1.29927e-06
1.29927e-06
1.29927e-06
1.30124e-06
1.30174e-06
1.30276e-06
1.30151e-06
1.29927e-06
1.29927e-06
1.29927e-06
1.29927e-06
1.29927e-06
1.29927e-06
1.29927e-06
1.29927e-06
1.29927e-06
1.30171e-06
1.30284e-06
1.30143e-06
1.29927e-06
1.29927e-06
1.29927e-06
1.29927e-06
1.29927e-06
1.29927e-06
1.29927e-06
1.29927e-06
1.29927e-06
1.30168e-06
1.30281e-06
1.30148e-06
1.29927e-06
1.29927e-06
1.29927e-06
1.29927e-06
1.29927e-06
1.29927e-06
1.29927e-06
1.29927e-06
1.29927e-06
1.30169e-06
1.30282e-06
1.30262e-06
1.30124e-06
1.29927e-06
1.29927e-06
1.29927e-06
1.29927e-06
1.29927e-06
1.29927e-06
1.29927e-06
1.3014e-06
1.30175e-06
1.30286e-06
1.30272e-06
1.30165e-06
1.30121e-06
1.29927e-06
1.29927e-06
1.29927e-06
1.29927e-06
1.29927e-06
1.30136e-06
1.30164e-06
1.30184e-06
1.30266e-06
1.30165e-06
1.30124e-06
1.29927e-06
1.29927e-06
1.29927e-06
1.3014e-06
1.30164e-06
1.30181e-06
1.30286e-06
1.30267e-06
1.30174e-06
1.30171e-06
1.30168e-06
1.30169e-06
1.30175e-06
1.30184e-06
1.30286e-06
1.30276e-06
1.30284e-06
1.30281e-06
1.30282e-06
1.30286e-06
1.29075e-06
1.28956e-06
1.28948e-06
1.28953e-06
1.29066e-06
1.29077e-06
1.2908e-06
1.28972e-06
1.28916e-06
1.28731e-06
1.28731e-06
1.28731e-06
1.28929e-06
1.2897e-06
1.29071e-06
1.28972e-06
1.28913e-06
1.28731e-06
1.28731e-06
1.28731e-06
1.28731e-06
1.28731e-06
1.28926e-06
1.28969e-06
1.29072e-06
1.29075e-06
1.28916e-06
1.28731e-06
1.28731e-06
1.28731e-06
1.28731e-06
1.28731e-06
1.28731e-06
1.28731e-06
1.28928e-06
1.28978e-06
1.29081e-06
1.28956e-06
1.28731e-06
1.28731e-06
1.28731e-06
1.28731e-06
1.28731e-06
1.28731e-06
1.28731e-06
1.28731e-06
1.28731e-06
1.28976e-06
1.29088e-06
1.28948e-06
1.28731e-06
1.28731e-06
1.28731e-06
1.28731e-06
1.28731e-06
1.28731e-06
1.28731e-06
1.28731e-06
1.28731e-06
1.28972e-06
1.29086e-06
1.28953e-06
1.28731e-06
1.28731e-06
1.28731e-06
1.28731e-06
1.28731e-06
1.28731e-06
1.28731e-06
1.28731e-06
1.28731e-06
1.28974e-06
1.29086e-06
1.29066e-06
1.28929e-06
1.28731e-06
1.28731e-06
1.28731e-06
1.28731e-06
1.28731e-06
1.28731e-06
1.28731e-06
1.28944e-06
1.28979e-06
1.2909e-06
1.29077e-06
1.2897e-06
1.28926e-06
1.28731e-06
1.28731e-06
1.28731e-06
1.28731e-06
1.28731e-06
1.28941e-06
1.28968e-06
1.28988e-06
1.29071e-06
1.28969e-06
1.28928e-06
1.28731e-06
1.28731e-06
1.28731e-06
1.28944e-06
1.28968e-06
1.28985e-06
1.2909e-06
1.29072e-06
1.28978e-06
1.28976e-06
1.28972e-06
1.28974e-06
1.28979e-06
1.28988e-06
1.2909e-06
1.29081e-06
1.29088e-06
1.29086e-06
1.29086e-06
1.2909e-06
1.27879e-06
1.2776e-06
1.27752e-06
1.27757e-06
1.27871e-06
1.27881e-06
1.27885e-06
1.27777e-06
1.27721e-06
1.27536e-06
1.27536e-06
1.27536e-06
1.27733e-06
1.27774e-06
1.27875e-06
1.27777e-06
1.27718e-06
1.27536e-06
1.27536e-06
1.27536e-06
1.27536e-06
1.27536e-06
1.2773e-06
1.27774e-06
1.27876e-06
1.27879e-06
1.27721e-06
1.27536e-06
1.27536e-06
1.27536e-06
1.27536e-06
1.27536e-06
1.27536e-06
1.27536e-06
1.27733e-06
1.27783e-06
1.27885e-06
1.2776e-06
1.27536e-06
1.27536e-06
1.27536e-06
1.27536e-06
1.27536e-06
1.27536e-06
1.27536e-06
1.27536e-06
1.27536e-06
1.2778e-06
1.27893e-06
1.27752e-06
1.27536e-06
1.27536e-06
1.27536e-06
1.27536e-06
1.27536e-06
1.27536e-06
1.27536e-06
1.27536e-06
1.27536e-06
1.27777e-06
1.2789e-06
1.27757e-06
1.27536e-06
1.27536e-06
1.27536e-06
1.27536e-06
1.27536e-06
1.27536e-06
1.27536e-06
1.27536e-06
1.27536e-06
1.27778e-06
1.2789e-06
1.27871e-06
1.27733e-06
1.27536e-06
1.27536e-06
1.27536e-06
1.27536e-06
1.27536e-06
1.27536e-06
1.27536e-06
1.27749e-06
1.27784e-06
1.27895e-06
1.27881e-06
1.27774e-06
1.2773e-06
1.27536e-06
1.27536e-06
1.27536e-06
1.27536e-06
1.27536e-06
1.27745e-06
1.27773e-06
1.27793e-06
1.27875e-06
1.27774e-06
1.27733e-06
1.27536e-06
1.27536e-06
1.27536e-06
1.27749e-06
1.27773e-06
1.2779e-06
1.27895e-06
1.27876e-06
1.27783e-06
1.2778e-06
1.27777e-06
1.27778e-06
1.27784e-06
1.27793e-06
1.27895e-06
1.27885e-06
1.27893e-06
1.2789e-06
1.2789e-06
1.27895e-06
1.26683e-06
1.26565e-06
1.26557e-06
1.26562e-06
1.26675e-06
1.26686e-06
1.26689e-06
1.26581e-06
1.26525e-06
1.2634e-06
1.2634e-06
1.2634e-06
1.26538e-06
1.26579e-06
1.2668e-06
1.26581e-06
1.26522e-06
1.2634e-06
1.2634e-06
1.2634e-06
1.2634e-06
1.2634e-06
1.26535e-06
1.26578e-06
1.2668e-06
1.26683e-06
1.26525e-06
1.2634e-06
1.2634e-06
1.2634e-06
1.2634e-06
1.2634e-06
1.2634e-06
1.2634e-06
1.26537e-06
1.26587e-06
1.2669e-06
1.26565e-06
1.2634e-06
1.2634e-06
1.2634e-06
1.2634e-06
1.2634e-06
1.2634e-06
1.2634e-06
1.2634e-06
1.2634e-06
1.26585e-06
1.26697e-06
1.26557e-06
1.2634e-06
1.2634e-06
1.2634e-06
1.2634e-06
1.2634e-06
1.2634e-06
1.2634e-06
1.2634e-06
1.2634e-06
1.26581e-06
1.26695e-06
1.26562e-06
1.2634e-06
1.2634e-06
1.2634e-06
1.2634e-06
1.2634e-06
1.2634e-06
1.2634e-06
1.2634e-06
1.2634e-06
1.26583e-06
1.26695e-06
1.26675e-06
1.26538e-06
1.2634e-06
1.2634e-06
1.2634e-06
1.2634e-06
1.2634e-06
1.2634e-06
1.2634e-06
1.26553e-06
1.26588e-06
1.26699e-06
1.26686e-06
1.26579e-06
1.26535e-06
1.2634e-06
1.2634e-06
1.2634e-06
1.2634e-06
1.2634e-06
1.26549e-06
1.26577e-06
1.26597e-06
1.2668e-06
1.26578e-06
1.26537e-06
1.2634e-06
1.2634e-06
1.2634e-06
1.26553e-06
1.26577e-06
1.26594e-06
1.26699e-06
1.2668e-06
1.26587e-06
1.26585e-06
1.26581e-06
1.26583e-06
1.26588e-06
1.26597e-06
1.26699e-06
1.2669e-06
1.26697e-06
1.26695e-06
1.26695e-06
1.26699e-06
1.25488e-06
1.25369e-06
1.25361e-06
1.25366e-06
1.2548e-06
1.2549e-06
1.25494e-06
1.25386e-06
1.2533e-06
1.25145e-06
1.25145e-06
1.25145e-06
1.25342e-06
1.25383e-06
1.25484e-06
1.25386e-06
1.25326e-06
1.25145e-06
1.25145e-06
1.25145e-06
1.25145e-06
1.25145e-06
1.25339e-06
1.25383e-06
1.25485e-06
1.25488e-06
1.2533e-06
1.25145e-06
1.25145e-06
1.25145e-06
1.25145e-06
1.25145e-06
1.25145e-06
1.25145e-06
1.25342e-06
1.25391e-06
1.25494e-06
1.25369e-06
1.25145e-06
1.25145e-06
1.25145e-06
1.25145e-06
1.25145e-06
1.25145e-06
1.25145e-06
1.25145e-06
1.25145e-06
1.25389e-06
1.25502e-06
1.25361e-06
1.25145e-06
1.25145e-06
1.25145e-06
1.25145e-06
1.25145e-06
1.25145e-06
1.25145e-06
1.25145e-06
1.25145e-06
1.25386e-06
1.25499e-06
1.25366e-06
1.25145e-06
1.25145e-06
1.25145e-06
1.25145e-06
1.25145e-06
1.25145e-06
1.25145e-06
1.25145e-06
1.25145e-06
1.25387e-06
1.25499e-06
1.2548e-06
1.25342e-06
1.25145e-06
1.25145e-06
1.25145e-06
1.25145e-06
1.25145e-06
1.25145e-06
1.25145e-06
1.25358e-06
1.25393e-06
1.25504e-06
1.2549e-06
1.25383e-06
1.25339e-06
1.25145e-06
1.25145e-06
1.25145e-06
1.25145e-06
1.25145e-06
1.25354e-06
1.25382e-06
1.25402e-06
1.25484e-06
1.25383e-06
1.25342e-06
1.25145e-06
1.25145e-06
1.25145e-06
1.25358e-06
1.25382e-06
1.25399e-06
1.25503e-06
1.25485e-06
1.25391e-06
1.25389e-06
1.25386e-06
1.25387e-06
1.25393e-06
1.25402e-06
1.25503e-06
1.25494e-06
1.25502e-06
1.25499e-06
1.25499e-06
1.25504e-06
1.24292e-06
1.24174e-06
1.24165e-06
1.24171e-06
1.24284e-06
1.24295e-06
1.24298e-06
1.2419e-06
1.24134e-06
1.23949e-06
1.23949e-06
1.23949e-06
1.24147e-06
1.24188e-06
1.24289e-06
1.2419e-06
1.24131e-06
1.23949e-06
1.23949e-06
1.23949e-06
1.23949e-06
1.23949e-06
1.24144e-06
1.24187e-06
1.24289e-06
1.24292e-06
1.24134e-06
1.23949e-06
1.23949e-06
1.23949e-06
1.23949e-06
1.23949e-06
1.23949e-06
1.23949e-06
1.24146e-06
1.24196e-06
1.24299e-06
1.24174e-06
1.23949e-06
1.23949e-06
1.23949e-06
1.23949e-06
1.23949e-06
1.23949e-06
1.23949e-06
1.23949e-06
1.23949e-06
1.24194e-06
1.24306e-06
1.24165e-06
1.23949e-06
1.23949e-06
1.23949e-06
1.23949e-06
1.23949e-06
1.23949e-06
1.23949e-06
1.23949e-06
1.23949e-06
1.2419e-06
1.24304e-06
1.24171e-06
1.23949e-06
1.23949e-06
1.23949e-06
1.23949e-06
1.23949e-06
1.23949e-06
1.23949e-06
1.23949e-06
1.23949e-06
1.24192e-06
1.24304e-06
1.24284e-06
1.24147e-06
1.23949e-06
1.23949e-06
1.23949e-06
1.23949e-06
1.23949e-06
1.23949e-06
1.23949e-06
1.24162e-06
1.24197e-06
1.24308e-06
1.24295e-06
1.24188e-06
1.24144e-06
1.23949e-06
1.23949e-06
1.23949e-06
1.23949e-06
1.23949e-06
1.24158e-06
1.24186e-06
1.24206e-06
1.24289e-06
1.24187e-06
1.24146e-06
1.23949e-06
1.23949e-06
1.23949e-06
1.24162e-06
1.24186e-06
1.24203e-06
1.24308e-06
1.24289e-06
1.24196e-06
1.24194e-06
1.2419e-06
1.24192e-06
1.24197e-06
1.24206e-06
1.24308e-06
1.24299e-06
1.24306e-06
1.24304e-06
1.24304e-06
1.24308e-06
1.23097e-06
1.22978e-06
1.2297e-06
1.22975e-06
1.23088e-06
1.23099e-06
1.23103e-06
1.22995e-06
1.22938e-06
1.22754e-06
1.22754e-06
1.22754e-06
1.22951e-06
1.22992e-06
1.23093e-06
1.22995e-06
1.22935e-06
1.22754e-06
1.22754e-06
1.22754e-06
1.22754e-06
1.22754e-06
1.22948e-06
1.22992e-06
1.23094e-06
1.23097e-06
1.22938e-06
1.22754e-06
1.22754e-06
1.22754e-06
1.22754e-06
1.22754e-06
1.22754e-06
1.22754e-06
1.22951e-06
1.23e-06
1.23103e-06
1.22978e-06
1.22754e-06
1.22754e-06
1.22754e-06
1.22754e-06
1.22754e-06
1.22754e-06
1.22754e-06
1.22754e-06
1.22754e-06
1.22998e-06
1.23111e-06
1.2297e-06
1.22754e-06
1.22754e-06
1.22754e-06
1.22754e-06
1.22754e-06
1.22754e-06
1.22754e-06
1.22754e-06
1.22754e-06
1.22995e-06
1.23108e-06
1.22975e-06
1.22754e-06
1.22754e-06
1.22754e-06
1.22754e-06
1.22754e-06
1.22754e-06
1.22754e-06
1.22754e-06
1.22754e-06
1.22996e-06
1.23108e-06
1.23088e-06
1.22951e-06
1.22754e-06
1.22754e-06
1.22754e-06
1.22754e-06
1.22754e-06
1.22754e-06
1.22754e-06
1.22967e-06
1.23002e-06
1.23113e-06
1.23099e-06
1.22992e-06
1.22948e-06
1.22754e-06
1.22754e-06
1.22754e-06
1.22754e-06
1.22754e-06
1.22963e-06
1.22991e-06
1.23011e-06
1.23093e-06
1.22992e-06
1.22951e-06
1.22754e-06
1.22754e-06
1.22754e-06
1.22967e-06
1.22991e-06
1.23008e-06
1.23112e-06
1.23094e-06
1.23e-06
1.22998e-06
1.22995e-06
1.22996e-06
1.23002e-06
1.23011e-06
1.23112e-06
1.23103e-06
1.23111e-06
1.23108e-06
1.23108e-06
1.23113e-06
1.21901e-06
1.21783e-06
1.21774e-06
1.21779e-06
1.21893e-06
1.21903e-06
1.21907e-06
1.21799e-06
1.21743e-06
1.21558e-06
1.21558e-06
1.21558e-06
1.21756e-06
1.21797e-06
1.21898e-06
1.21799e-06
1.2174e-06
1.21558e-06
1.21558e-06
1.21558e-06
1.21558e-06
1.21558e-06
1.21753e-06
1.21796e-06
1.21898e-06
1.21901e-06
1.21743e-06
1.21558e-06
1.21558e-06
1.21558e-06
1.21558e-06
1.21558e-06
1.21558e-06
1.21558e-06
1.21755e-06
1.21805e-06
1.21908e-06
1.21783e-06
1.21558e-06
1.21558e-06
1.21558e-06
1.21558e-06
1.21558e-06
1.21558e-06
1.21558e-06
1.21558e-06
1.21558e-06
1.21803e-06
1.21915e-06
1.21774e-06
1.21558e-06
1.21558e-06
1.21558e-06
1.21558e-06
1.21558e-06
1.21558e-06
1.21558e-06
1.21558e-06
1.21558e-06
1.21799e-06
1.21912e-06
1.21779e-06
1.21558e-06
1.21558e-06
1.21558e-06
1.21558e-06
1.21558e-06
1.21558e-06
1.21558e-06
1.21558e-06
1.21558e-06
1.21801e-06
1.21913e-06
1.21893e-06
1.21756e-06
1.21558e-06
1.21558e-06
1.21558e-06
1.21558e-06
1.21558e-06
1.21558e-06
1.21558e-06
1.21771e-06
1.21806e-06
1.21917e-06
1.21903e-06
1.21797e-06
1.21753e-06
1.21558e-06
1.21558e-06
1.21558e-06
1.21558e-06
1.21558e-06
1.21767e-06
1.21795e-06
1.21815e-06
1.21898e-06
1.21796e-06
1.21755e-06
1.21558e-06
1.21558e-06
1.21558e-06
1.21771e-06
1.21795e-06
1.21812e-06
1.21917e-06
1.21898e-06
1.21805e-06
1.21803e-06
1.21799e-06
1.21801e-06
1.21806e-06
1.21815e-06
1.21917e-06
1.21908e-06
1.21915e-06
1.21912e-06
1.21913e-06
1.21917e-06
1.20706e-06
1.20587e-06
1.20579e-06
1.20584e-06
1.20697e-06
1.20708e-06
1.20712e-06
1.20604e-06
1.20547e-06
1.20362e-06
1.20362e-06
1.20362e-06
1.2056e-06
1.20601e-06
1.20702e-06
1.20604e-06
1.20544e-06
1.20362e-06
1.20363e-06
1.20362e-06
1.20363e-06
1.20362e-06
1.20557e-06
1.20601e-06
1.20703e-06
1.20706e-06
1.20547e-06
1.20362e-06
1.20363e-06
1.20362e-06
1.20362e-06
1.20362e-06
1.20363e-06
1.20362e-06
1.20559e-06
1.20609e-06
1.20712e-06
1.20587e-06
1.20362e-06
1.20363e-06
1.20362e-06
1.20363e-06
1.20362e-06
1.20363e-06
1.20362e-06
1.20363e-06
1.20362e-06
1.20607e-06
1.2072e-06
1.20579e-06
1.20362e-06
1.20362e-06
1.20362e-06
1.20362e-06
1.20362e-06
1.20362e-06
1.20362e-06
1.20362e-06
1.20362e-06
1.20604e-06
1.20717e-06
1.20584e-06
1.20362e-06
1.20363e-06
1.20362e-06
1.20363e-06
1.20362e-06
1.20363e-06
1.20362e-06
1.20363e-06
1.20362e-06
1.20605e-06
1.20717e-06
1.20697e-06
1.2056e-06
1.20362e-06
1.20363e-06
1.20362e-06
1.20362e-06
1.20362e-06
1.20362e-06
1.20362e-06
1.20576e-06
1.2061e-06
1.20722e-06
1.20708e-06
1.20601e-06
1.20557e-06
1.20362e-06
1.20363e-06
1.20362e-06
1.20363e-06
1.20362e-06
1.20572e-06
1.20599e-06
1.2062e-06
1.20702e-06
1.20601e-06
1.20559e-06
1.20362e-06
1.20362e-06
1.20362e-06
1.20576e-06
1.20599e-06
1.20617e-06
1.20721e-06
1.20703e-06
1.20609e-06
1.20607e-06
1.20604e-06
1.20605e-06
1.2061e-06
1.2062e-06
1.20721e-06
1.20712e-06
1.2072e-06
1.20717e-06
1.20717e-06
1.20722e-06
1.1951e-06
1.19391e-06
1.19383e-06
1.19388e-06
1.19502e-06
1.19512e-06
1.19516e-06
1.19408e-06
1.19352e-06
1.19167e-06
1.19167e-06
1.19167e-06
1.19365e-06
1.19406e-06
1.19507e-06
1.19408e-06
1.19349e-06
1.19167e-06
1.19167e-06
1.19167e-06
1.19167e-06
1.19167e-06
1.19362e-06
1.19405e-06
1.19507e-06
1.1951e-06
1.19352e-06
1.19167e-06
1.19167e-06
1.19167e-06
1.19167e-06
1.19167e-06
1.19167e-06
1.19167e-06
1.19364e-06
1.19414e-06
1.19516e-06
1.19391e-06
1.19167e-06
1.19167e-06
1.19167e-06
1.19167e-06
1.19167e-06
1.19167e-06
1.19167e-06
1.19167e-06
1.19167e-06
1.19411e-06
1.19524e-06
1.19383e-06
1.19167e-06
1.19167e-06
1.19167e-06
1.19167e-06
1.19167e-06
1.19167e-06
1.19167e-06
1.19167e-06
1.19167e-06
1.19408e-06
1.19521e-06
1.19388e-06
1.19167e-06
1.19167e-06
1.19167e-06
1.19167e-06
1.19167e-06
1.19167e-06
1.19167e-06
1.19167e-06
1.19167e-06
1.1941e-06
1.19522e-06
1.19502e-06
1.19365e-06
1.19167e-06
1.19167e-06
1.19167e-06
1.19167e-06
1.19167e-06
1.19167e-06
1.19167e-06
1.1938e-06
1.19415e-06
1.19526e-06
1.19512e-06
1.19406e-06
1.19362e-06
1.19167e-06
1.19167e-06
1.19167e-06
1.19167e-06
1.19167e-06
1.19376e-06
1.19404e-06
1.19424e-06
1.19507e-06
1.19405e-06
1.19364e-06
1.19167e-06
1.19167e-06
1.19167e-06
1.1938e-06
1.19404e-06
1.19421e-06
1.19526e-06
1.19507e-06
1.19414e-06
1.19411e-06
1.19408e-06
1.1941e-06
1.19415e-06
1.19424e-06
1.19526e-06
1.19516e-06
1.19524e-06
1.19521e-06
1.19522e-06
1.19526e-06
1.18315e-06
1.18196e-06
1.18188e-06
1.18193e-06
1.18306e-06
1.18317e-06
1.18321e-06
1.18212e-06
1.18156e-06
1.17971e-06
1.17971e-06
1.17971e-06
1.18169e-06
1.1821e-06
1.18311e-06
1.18212e-06
1.18153e-06
1.17971e-06
1.17971e-06
1.17971e-06
1.17971e-06
1.17971e-06
1.18166e-06
1.18209e-06
1.18312e-06
1.18315e-06
1.18156e-06
1.17971e-06
1.17971e-06
1.17971e-06
1.17971e-06
1.17971e-06
1.17971e-06
1.17971e-06
1.18168e-06
1.18218e-06
1.18321e-06
1.18196e-06
1.17971e-06
1.17971e-06
1.17971e-06
1.17971e-06
1.17971e-06
1.17971e-06
1.17971e-06
1.17971e-06
1.17971e-06
1.18216e-06
1.18328e-06
1.18188e-06
1.17971e-06
1.17971e-06
1.17971e-06
1.17971e-06
1.17971e-06
1.17971e-06
1.17971e-06
1.17971e-06
1.17971e-06
1.18213e-06
1.18326e-06
1.18193e-06
1.17971e-06
1.17971e-06
1.17971e-06
1.17971e-06
1.17971e-06
1.17971e-06
1.17971e-06
1.17971e-06