/*--------------------------------*- C++ -*----------------------------------*\
| =========                 |                                                 |
| \\      /  F ield         | OpenFOAM: The Open Source CFD Toolbox           |
|  \\    /   O peration     | Version:  v2012                                 |
|   \\  /    A nd           | Website:  www.openfoam.com                      |
|    \\/     M anipulation  |                                                 |
\*---------------------------------------------------------------------------*/
FoamFile
{
    version     2.0;
    format      ascii;
    class       volScalarField;
    location    "74";
    object      p;
}
// * * * * * * * * * * * * * * * * * * * * * * * * * * * * * * * * * * * * * //

dimensions      [0 2 -2 0 0 0 0];


internalField   nonuniform List<scalar> 
292667
(
1.0401e-06
1.03122e-06
1.03057e-06
1.03062e-06
1.0315e-06
1.04095e-06
1.03143e-06
1.02919e-06
1.02786e-06
1.02732e-06
1.02739e-06
1.02809e-06
1.02961e-06
1.03204e-06
1.03143e-06
1.02854e-06
1.02671e-06
1.0257e-06
1.02527e-06
1.02533e-06
1.02588e-06
1.02705e-06
1.0291e-06
1.0322e-06
1.0401e-06
1.02919e-06
1.02671e-06
1.02523e-06
1.0244e-06
1.02404e-06
1.02409e-06
1.02455e-06
1.02551e-06
1.0272e-06
1.02996e-06
1.03955e-06
1.03122e-06
1.02786e-06
1.0257e-06
1.0244e-06
1.02366e-06
1.02334e-06
1.02338e-06
1.0238e-06
1.02466e-06
1.02614e-06
1.02858e-06
1.03451e-06
1.03057e-06
1.02732e-06
1.02527e-06
1.02404e-06
1.02334e-06
1.02303e-06
1.02307e-06
1.02347e-06
1.02429e-06
1.02569e-06
1.02801e-06
1.03301e-06
1.03062e-06
1.02739e-06
1.02533e-06
1.02409e-06
1.02338e-06
1.02307e-06
1.02312e-06
1.02352e-06
1.02434e-06
1.02575e-06
1.02809e-06
1.03331e-06
1.0315e-06
1.02809e-06
1.02588e-06
1.02455e-06
1.0238e-06
1.02347e-06
1.02352e-06
1.02394e-06
1.02482e-06
1.02634e-06
1.02885e-06
1.03479e-06
1.04095e-06
1.02961e-06
1.02705e-06
1.02551e-06
1.02466e-06
1.02429e-06
1.02434e-06
1.02482e-06
1.02583e-06
1.02758e-06
1.03044e-06
1.03939e-06
1.03204e-06
1.0291e-06
1.0272e-06
1.02614e-06
1.02569e-06
1.02575e-06
1.02634e-06
1.02758e-06
1.02974e-06
1.03547e-06
1.0322e-06
1.02996e-06
1.02858e-06
1.02801e-06
1.02809e-06
1.02885e-06
1.03044e-06
1.03547e-06
1.03955e-06
1.03451e-06
1.03301e-06
1.03331e-06
1.03479e-06
1.03939e-06
1.01646e-06
1.01584e-06
1.01581e-06
1.01586e-06
1.0165e-06
1.01635e-06
1.01648e-06
1.01601e-06
1.01568e-06
1.01457e-06
1.01455e-06
1.01457e-06
1.01584e-06
1.01607e-06
1.01654e-06
1.01601e-06
1.01566e-06
1.01461e-06
1.01456e-06
1.0146e-06
1.01456e-06
1.01461e-06
1.01583e-06
1.01606e-06
1.01653e-06
1.01646e-06
1.01568e-06
1.01461e-06
1.01455e-06
1.01457e-06
1.01455e-06
1.01457e-06
1.01455e-06
1.01461e-06
1.01583e-06
1.01609e-06
1.01654e-06
1.01584e-06
1.01457e-06
1.01456e-06
1.01457e-06
1.01453e-06
1.01454e-06
1.01453e-06
1.01457e-06
1.01456e-06
1.01457e-06
1.01625e-06
1.01672e-06
1.01581e-06
1.01455e-06
1.0146e-06
1.01455e-06
1.01454e-06
1.01453e-06
1.01454e-06
1.01455e-06
1.0146e-06
1.01455e-06
1.01627e-06
1.01667e-06
1.01586e-06
1.01457e-06
1.01456e-06
1.01457e-06
1.01453e-06
1.01454e-06
1.01453e-06
1.01457e-06
1.01456e-06
1.01457e-06
1.01627e-06
1.01668e-06
1.0165e-06
1.01584e-06
1.01461e-06
1.01455e-06
1.01457e-06
1.01455e-06
1.01457e-06
1.01455e-06
1.01461e-06
1.01603e-06
1.01616e-06
1.01668e-06
1.01635e-06
1.01607e-06
1.01583e-06
1.01461e-06
1.01456e-06
1.0146e-06
1.01456e-06
1.01461e-06
1.016e-06
1.01613e-06
1.01612e-06
1.01654e-06
1.01606e-06
1.01583e-06
1.01457e-06
1.01455e-06
1.01457e-06
1.01603e-06
1.01613e-06
1.01615e-06
1.01663e-06
1.01653e-06
1.01609e-06
1.01625e-06
1.01627e-06
1.01627e-06
1.01616e-06
1.01612e-06
1.01663e-06
1.01654e-06
1.01672e-06
1.01667e-06
1.01668e-06
1.01668e-06
1.00781e-06
1.00713e-06
1.00708e-06
1.00712e-06
1.00783e-06
1.00785e-06
1.00783e-06
1.00724e-06
1.00685e-06
1.00579e-06
1.00578e-06
1.00579e-06
1.00701e-06
1.00727e-06
1.00784e-06
1.00724e-06
1.00683e-06
1.00582e-06
1.00583e-06
1.00586e-06
1.00583e-06
1.00582e-06
1.00701e-06
1.00727e-06
1.00784e-06
1.00781e-06
1.00685e-06
1.00583e-06
1.00584e-06
1.00588e-06
1.00588e-06
1.00589e-06
1.00584e-06
1.00583e-06
1.00702e-06
1.00734e-06
1.00786e-06
1.00713e-06
1.00579e-06
1.00583e-06
1.00589e-06
1.00589e-06
1.00591e-06
1.00589e-06
1.00589e-06
1.00583e-06
1.00579e-06
1.00741e-06
1.00801e-06
1.00708e-06
1.00578e-06
1.00586e-06
1.00588e-06
1.00591e-06
1.00591e-06
1.00591e-06
1.00588e-06
1.00586e-06
1.00578e-06
1.00742e-06
1.00804e-06
1.00712e-06
1.00579e-06
1.00583e-06
1.00589e-06
1.00589e-06
1.00591e-06
1.00589e-06
1.00589e-06
1.00583e-06
1.00579e-06
1.00741e-06
1.00804e-06
1.00783e-06
1.00701e-06
1.00582e-06
1.00584e-06
1.00589e-06
1.00588e-06
1.00589e-06
1.00584e-06
1.00582e-06
1.00723e-06
1.00739e-06
1.008e-06
1.00785e-06
1.00727e-06
1.00701e-06
1.00583e-06
1.00583e-06
1.00586e-06
1.00583e-06
1.00583e-06
1.00721e-06
1.00733e-06
1.00741e-06
1.00784e-06
1.00727e-06
1.00702e-06
1.00579e-06
1.00578e-06
1.00579e-06
1.00723e-06
1.00733e-06
1.0074e-06
1.00798e-06
1.00784e-06
1.00734e-06
1.00741e-06
1.00742e-06
1.00741e-06
1.00739e-06
1.00741e-06
1.00798e-06
1.00786e-06
1.00801e-06
1.00804e-06
1.00804e-06
1.008e-06
9.99195e-07
9.98504e-07
9.98445e-07
9.98492e-07
9.99212e-07
9.99227e-07
9.99206e-07
9.98602e-07
9.98199e-07
9.97116e-07
9.97117e-07
9.97116e-07
9.98351e-07
9.98627e-07
9.99221e-07
9.98602e-07
9.98168e-07
9.97136e-07
9.97151e-07
9.97166e-07
9.97151e-07
9.97136e-07
9.98337e-07
9.98625e-07
9.99223e-07
9.99195e-07
9.98199e-07
9.97136e-07
9.9716e-07
9.97189e-07
9.9719e-07
9.97189e-07
9.9716e-07
9.97136e-07
9.98357e-07
9.98704e-07
9.99239e-07
9.98504e-07
9.97116e-07
9.97151e-07
9.9719e-07
9.97204e-07
9.97218e-07
9.97204e-07
9.9719e-07
9.97151e-07
9.97116e-07
9.9877e-07
9.99393e-07
9.98445e-07
9.97117e-07
9.97166e-07
9.9719e-07
9.97218e-07
9.97221e-07
9.97218e-07
9.9719e-07
9.97166e-07
9.97117e-07
9.98768e-07
9.99413e-07
9.98492e-07
9.97116e-07
9.97151e-07
9.97189e-07
9.97204e-07
9.97218e-07
9.97204e-07
9.97189e-07
9.97151e-07
9.97116e-07
9.98768e-07
9.99413e-07
9.99212e-07
9.98351e-07
9.97136e-07
9.9716e-07
9.9719e-07
9.9719e-07
9.9719e-07
9.9716e-07
9.97136e-07
9.98572e-07
9.98755e-07
9.9938e-07
9.99227e-07
9.98627e-07
9.98337e-07
9.97136e-07
9.97151e-07
9.97166e-07
9.97151e-07
9.97136e-07
9.98547e-07
9.98683e-07
9.9879e-07
9.99221e-07
9.98625e-07
9.98357e-07
9.97116e-07
9.97117e-07
9.97116e-07
9.98572e-07
9.98683e-07
9.98767e-07
9.99359e-07
9.99223e-07
9.98704e-07
9.9877e-07
9.98768e-07
9.98768e-07
9.98755e-07
9.9879e-07
9.99358e-07
9.99239e-07
9.99393e-07
9.99413e-07
9.99413e-07
9.9938e-07
9.90574e-07
9.8988e-07
9.89819e-07
9.89867e-07
9.9059e-07
9.90606e-07
9.90586e-07
9.89976e-07
9.89567e-07
9.88474e-07
9.88476e-07
9.88474e-07
9.89717e-07
9.89999e-07
9.906e-07
9.89976e-07
9.89532e-07
9.88485e-07
9.88496e-07
9.88502e-07
9.88496e-07
9.88485e-07
9.89698e-07
9.89996e-07
9.90604e-07
9.90573e-07
9.89567e-07
9.88485e-07
9.88501e-07
9.88518e-07
9.8852e-07
9.88518e-07
9.88501e-07
9.88485e-07
9.89721e-07
9.9008e-07
9.90619e-07
9.8988e-07
9.88474e-07
9.88496e-07
9.88518e-07
9.88531e-07
9.88539e-07
9.88531e-07
9.88518e-07
9.88496e-07
9.88474e-07
9.90143e-07
9.90772e-07
9.89819e-07
9.88476e-07
9.88502e-07
9.8852e-07
9.88539e-07
9.88542e-07
9.88539e-07
9.8852e-07
9.88502e-07
9.88476e-07
9.90138e-07
9.90792e-07
9.89867e-07
9.88474e-07
9.88496e-07
9.88518e-07
9.88531e-07
9.88539e-07
9.88531e-07
9.88518e-07
9.88496e-07
9.88474e-07
9.90139e-07
9.90792e-07
9.90591e-07
9.89718e-07
9.88485e-07
9.88501e-07
9.88519e-07
9.8852e-07
9.88518e-07
9.88501e-07
9.88485e-07
9.89938e-07
9.90131e-07
9.90759e-07
9.90606e-07
9.89999e-07
9.89698e-07
9.88485e-07
9.88496e-07
9.88502e-07
9.88496e-07
9.88485e-07
9.89908e-07
9.90053e-07
9.90169e-07
9.906e-07
9.89996e-07
9.89721e-07
9.88474e-07
9.88476e-07
9.88474e-07
9.89938e-07
9.90054e-07
9.90145e-07
9.90739e-07
9.90604e-07
9.9008e-07
9.90143e-07
9.90138e-07
9.90139e-07
9.90131e-07
9.90169e-07
9.90739e-07
9.90618e-07
9.90772e-07
9.90792e-07
9.90792e-07
9.90759e-07
9.81951e-07
9.81255e-07
9.81195e-07
9.81242e-07
9.81968e-07
9.81984e-07
9.81963e-07
9.81352e-07
9.8094e-07
9.79843e-07
9.79844e-07
9.79843e-07
9.8109e-07
9.81374e-07
9.81978e-07
9.81352e-07
9.80904e-07
9.79848e-07
9.79855e-07
9.79858e-07
9.79855e-07
9.79848e-07
9.81069e-07
9.81371e-07
9.81981e-07
9.81951e-07
9.8094e-07
9.79848e-07
9.79858e-07
9.79867e-07
9.79869e-07
9.79867e-07
9.79858e-07
9.79848e-07
9.81093e-07
9.81457e-07
9.81996e-07
9.81255e-07
9.79843e-07
9.79855e-07
9.79868e-07
9.79876e-07
9.7988e-07
9.79876e-07
9.79868e-07
9.79855e-07
9.79843e-07
9.81519e-07
9.82149e-07
9.81195e-07
9.79844e-07
9.79858e-07
9.79869e-07
9.7988e-07
9.79882e-07
9.7988e-07
9.79869e-07
9.79858e-07
9.79844e-07
9.81512e-07
9.82169e-07
9.81242e-07
9.79843e-07
9.79855e-07
9.79867e-07
9.79876e-07
9.7988e-07
9.79876e-07
9.79867e-07
9.79855e-07
9.79843e-07
9.81514e-07
9.82169e-07
9.81968e-07
9.8109e-07
9.79848e-07
9.79858e-07
9.79868e-07
9.79869e-07
9.79868e-07
9.79858e-07
9.79848e-07
9.8131e-07
9.81507e-07
9.82137e-07
9.81984e-07
9.81374e-07
9.81069e-07
9.79848e-07
9.79855e-07
9.79858e-07
9.79855e-07
9.79848e-07
9.81279e-07
9.81428e-07
9.81547e-07
9.81978e-07
9.81371e-07
9.81093e-07
9.79843e-07
9.79844e-07
9.79843e-07
9.8131e-07
9.81428e-07
9.81522e-07
9.82117e-07
9.81981e-07
9.81457e-07
9.81519e-07
9.81512e-07
9.81514e-07
9.81507e-07
9.81547e-07
9.82117e-07
9.81996e-07
9.82149e-07
9.82169e-07
9.82169e-07
9.82137e-07
9.73327e-07
9.72631e-07
9.7257e-07
9.72618e-07
9.73344e-07
9.7336e-07
9.7334e-07
9.72728e-07
9.72314e-07
9.71215e-07
9.71216e-07
9.71215e-07
9.72465e-07
9.72749e-07
9.73355e-07
9.72728e-07
9.72277e-07
9.71218e-07
9.71222e-07
9.71223e-07
9.71222e-07
9.71218e-07
9.72443e-07
9.72746e-07
9.73358e-07
9.73327e-07
9.72314e-07
9.71218e-07
9.71224e-07
9.71228e-07
9.7123e-07
9.71228e-07
9.71224e-07
9.71218e-07
9.72468e-07
9.72833e-07
9.73372e-07
9.72631e-07
9.71215e-07
9.71222e-07
9.71229e-07
9.71234e-07
9.71236e-07
9.71234e-07
9.71229e-07
9.71222e-07
9.71215e-07
9.72894e-07
9.73525e-07
9.7257e-07
9.71216e-07
9.71223e-07
9.7123e-07
9.71236e-07
9.71237e-07
9.71236e-07
9.7123e-07
9.71223e-07
9.71216e-07
9.72887e-07
9.73545e-07
9.72618e-07
9.71215e-07
9.71222e-07
9.71228e-07
9.71234e-07
9.71236e-07
9.71234e-07
9.71228e-07
9.71222e-07
9.71215e-07
9.72889e-07
9.73545e-07
9.73344e-07
9.72465e-07
9.71218e-07
9.71224e-07
9.71229e-07
9.7123e-07
9.71229e-07
9.71224e-07
9.71218e-07
9.72684e-07
9.72883e-07
9.73513e-07
9.7336e-07
9.72749e-07
9.72443e-07
9.71218e-07
9.71222e-07
9.71223e-07
9.71222e-07
9.71218e-07
9.72652e-07
9.72803e-07
9.72923e-07
9.73355e-07
9.72746e-07
9.72467e-07
9.71215e-07
9.71216e-07
9.71215e-07
9.72684e-07
9.72803e-07
9.72899e-07
9.73493e-07
9.73358e-07
9.72833e-07
9.72894e-07
9.72887e-07
9.72889e-07
9.72883e-07
9.72923e-07
9.73493e-07
9.73372e-07
9.73525e-07
9.73545e-07
9.73545e-07
9.73513e-07
9.64703e-07
9.64006e-07
9.63945e-07
9.63993e-07
9.64719e-07
9.64736e-07
9.64715e-07
9.64103e-07
9.63689e-07
9.62588e-07
9.62589e-07
9.62588e-07
9.6384e-07
9.64124e-07
9.6473e-07
9.64103e-07
9.63651e-07
9.6259e-07
9.62593e-07
9.62593e-07
9.62593e-07
9.6259e-07
9.63817e-07
9.64122e-07
9.64734e-07
9.64703e-07
9.63689e-07
9.6259e-07
9.62594e-07
9.62596e-07
9.62597e-07
9.62596e-07
9.62594e-07
9.6259e-07
9.63842e-07
9.64208e-07
9.64748e-07
9.64006e-07
9.62588e-07
9.62593e-07
9.62596e-07
9.62599e-07
9.626e-07
9.62599e-07
9.62596e-07
9.62593e-07
9.62588e-07
9.64269e-07
9.64901e-07
9.63945e-07
9.62589e-07
9.62593e-07
9.62597e-07
9.626e-07
9.62601e-07
9.626e-07
9.62597e-07
9.62593e-07
9.62589e-07
9.64262e-07
9.6492e-07
9.63993e-07
9.62588e-07
9.62593e-07
9.62596e-07
9.626e-07
9.62601e-07
9.626e-07
9.62596e-07
9.62593e-07
9.62588e-07
9.64264e-07
9.6492e-07
9.64719e-07
9.6384e-07
9.6259e-07
9.62594e-07
9.62596e-07
9.62597e-07
9.62596e-07
9.62594e-07
9.6259e-07
9.64059e-07
9.64259e-07
9.64889e-07
9.64736e-07
9.64124e-07
9.63817e-07
9.6259e-07
9.62593e-07
9.62593e-07
9.62593e-07
9.6259e-07
9.64026e-07
9.64179e-07
9.64299e-07
9.6473e-07
9.64122e-07
9.63842e-07
9.62588e-07
9.6259e-07
9.62588e-07
9.64059e-07
9.64179e-07
9.64274e-07
9.6487e-07
9.64734e-07
9.64208e-07
9.64269e-07
9.64262e-07
9.64264e-07
9.64259e-07
9.64299e-07
9.64869e-07
9.64748e-07
9.64901e-07
9.6492e-07
9.6492e-07
9.64889e-07
9.56078e-07
9.55381e-07
9.5532e-07
9.55368e-07
9.56095e-07
9.56111e-07
9.56091e-07
9.55478e-07
9.55064e-07
9.53963e-07
9.53963e-07
9.53963e-07
9.55215e-07
9.55499e-07
9.56106e-07
9.55478e-07
9.55026e-07
9.53964e-07
9.53966e-07
9.53966e-07
9.53966e-07
9.53964e-07
9.55192e-07
9.55497e-07
9.56109e-07
9.56078e-07
9.55064e-07
9.53964e-07
9.53966e-07
9.53967e-07
9.53968e-07
9.53967e-07
9.53966e-07
9.53964e-07
9.55217e-07
9.55583e-07
9.56123e-07
9.55381e-07
9.53963e-07
9.53966e-07
9.53967e-07
9.53969e-07
9.5397e-07
9.53969e-07
9.53967e-07
9.53966e-07
9.53963e-07
9.55645e-07
9.56276e-07
9.5532e-07
9.53963e-07
9.53966e-07
9.53968e-07
9.5397e-07
9.5397e-07
9.5397e-07
9.53968e-07
9.53966e-07
9.53964e-07
9.55637e-07
9.56295e-07
9.55368e-07
9.53963e-07
9.53966e-07
9.53967e-07
9.53969e-07
9.5397e-07
9.53969e-07
9.53967e-07
9.53966e-07
9.53963e-07
9.55639e-07
9.56296e-07
9.56095e-07
9.55215e-07
9.53964e-07
9.53966e-07
9.53967e-07
9.53968e-07
9.53967e-07
9.53966e-07
9.53964e-07
9.55434e-07
9.55634e-07
9.56264e-07
9.56111e-07
9.55499e-07
9.55192e-07
9.53964e-07
9.53966e-07
9.53966e-07
9.53966e-07
9.53964e-07
9.55401e-07
9.55554e-07
9.55674e-07
9.56106e-07
9.55497e-07
9.55217e-07
9.53963e-07
9.53963e-07
9.53963e-07
9.55434e-07
9.55554e-07
9.5565e-07
9.56245e-07
9.56109e-07
9.55583e-07
9.55645e-07
9.55637e-07
9.55639e-07
9.55634e-07
9.55674e-07
9.56245e-07
9.56123e-07
9.56276e-07
9.56295e-07
9.56296e-07
9.56264e-07
9.47453e-07
9.46756e-07
9.46695e-07
9.46743e-07
9.4747e-07
9.47487e-07
9.47466e-07
9.46854e-07
9.46438e-07
9.45338e-07
9.45338e-07
9.45338e-07
9.4659e-07
9.46875e-07
9.47481e-07
9.46854e-07
9.46401e-07
9.45338e-07
9.4534e-07
9.4534e-07
9.4534e-07
9.45338e-07
9.46567e-07
9.46872e-07
9.47484e-07
9.47453e-07
9.46438e-07
9.45338e-07
9.4534e-07
9.4534e-07
9.45341e-07
9.4534e-07
9.4534e-07
9.45338e-07
9.46592e-07
9.46959e-07
9.47498e-07
9.46756e-07
9.45338e-07
9.4534e-07
9.4534e-07
9.45342e-07
9.45341e-07
9.45342e-07
9.4534e-07
9.4534e-07
9.45338e-07
9.47019e-07
9.47651e-07
9.46695e-07
9.45338e-07
9.4534e-07
9.45341e-07
9.45342e-07
9.45342e-07
9.45342e-07
9.45341e-07
9.4534e-07
9.45338e-07
9.47012e-07
9.47671e-07
9.46743e-07
9.45338e-07
9.4534e-07
9.4534e-07
9.45342e-07
9.45341e-07
9.45342e-07
9.4534e-07
9.4534e-07
9.45338e-07
9.47014e-07
9.47671e-07
9.4747e-07
9.4659e-07
9.45338e-07
9.4534e-07
9.4534e-07
9.45341e-07
9.4534e-07
9.4534e-07
9.45338e-07
9.46809e-07
9.47009e-07
9.47639e-07
9.47487e-07
9.46875e-07
9.46567e-07
9.45338e-07
9.4534e-07
9.4534e-07
9.4534e-07
9.45338e-07
9.46776e-07
9.46929e-07
9.47049e-07
9.47481e-07
9.46872e-07
9.46592e-07
9.45338e-07
9.45338e-07
9.45338e-07
9.46809e-07
9.46929e-07
9.47025e-07
9.4762e-07
9.47484e-07
9.46959e-07
9.47019e-07
9.47012e-07
9.47014e-07
9.47009e-07
9.47049e-07
9.4762e-07
9.47498e-07
9.47651e-07
9.47671e-07
9.47671e-07
9.47639e-07
9.38829e-07
9.38132e-07
9.38071e-07
9.38118e-07
9.38845e-07
9.38862e-07
9.38841e-07
9.38229e-07
9.37814e-07
9.36712e-07
9.36713e-07
9.36712e-07
9.37965e-07
9.3825e-07
9.38856e-07
9.38229e-07
9.37776e-07
9.36713e-07
9.36715e-07
9.36714e-07
9.36715e-07
9.36713e-07
9.37942e-07
9.38247e-07
9.3886e-07
9.38829e-07
9.37814e-07
9.36713e-07
9.36714e-07
9.36714e-07
9.36715e-07
9.36714e-07
9.36714e-07
9.36713e-07
9.37967e-07
9.38334e-07
9.38874e-07
9.38131e-07
9.36712e-07
9.36715e-07
9.36714e-07
9.36716e-07
9.36715e-07
9.36715e-07
9.36714e-07
9.36715e-07
9.36712e-07
9.38395e-07
9.39027e-07
9.3807e-07
9.36713e-07
9.36714e-07
9.36715e-07
9.36715e-07
9.36715e-07
9.36715e-07
9.36715e-07
9.36714e-07
9.36713e-07
9.38387e-07
9.39046e-07
9.38118e-07
9.36712e-07
9.36715e-07
9.36714e-07
9.36716e-07
9.36715e-07
9.36715e-07
9.36714e-07
9.36715e-07
9.36712e-07
9.38389e-07
9.39046e-07
9.38845e-07
9.37965e-07
9.36713e-07
9.36714e-07
9.36714e-07
9.36715e-07
9.36714e-07
9.36714e-07
9.36713e-07
9.38184e-07
9.38384e-07
9.39014e-07
9.38862e-07
9.3825e-07
9.37942e-07
9.36713e-07
9.36715e-07
9.36714e-07
9.36715e-07
9.36713e-07
9.38151e-07
9.38304e-07
9.38424e-07
9.38856e-07
9.38247e-07
9.37967e-07
9.36712e-07
9.36713e-07
9.36712e-07
9.38184e-07
9.38304e-07
9.384e-07
9.38995e-07
9.3886e-07
9.38334e-07
9.38395e-07
9.38387e-07
9.38389e-07
9.38384e-07
9.38424e-07
9.38995e-07
9.38874e-07
9.39027e-07
9.39046e-07
9.39046e-07
9.39014e-07
9.30204e-07
9.29507e-07
9.29446e-07
9.29494e-07
9.3022e-07
9.30237e-07
9.30217e-07
9.29604e-07
9.29189e-07
9.28087e-07
9.28088e-07
9.28087e-07
9.2934e-07
9.29625e-07
9.30232e-07
9.29604e-07
9.29151e-07
9.28088e-07
9.2809e-07
9.28089e-07
9.2809e-07
9.28088e-07
9.29317e-07
9.29622e-07
9.30235e-07
9.30204e-07
9.29189e-07
9.28088e-07
9.28089e-07
9.28088e-07
9.28089e-07
9.28088e-07
9.28089e-07
9.28088e-07
9.29342e-07
9.29709e-07
9.30249e-07
9.29507e-07
9.28087e-07
9.2809e-07
9.28088e-07
9.2809e-07
9.28089e-07
9.2809e-07
9.28088e-07
9.2809e-07
9.28087e-07
9.2977e-07
9.30402e-07
9.29446e-07
9.28088e-07
9.28089e-07
9.28089e-07
9.28089e-07
9.28089e-07
9.28089e-07
9.28089e-07
9.28089e-07
9.28088e-07
9.29762e-07
9.30421e-07
9.29494e-07
9.28087e-07
9.2809e-07
9.28088e-07
9.2809e-07
9.28089e-07
9.2809e-07
9.28088e-07
9.2809e-07
9.28087e-07
9.29764e-07
9.30421e-07
9.3022e-07
9.2934e-07
9.28088e-07
9.28089e-07
9.28088e-07
9.28089e-07
9.28088e-07
9.28089e-07
9.28088e-07
9.29559e-07
9.29759e-07
9.30389e-07
9.30237e-07
9.29625e-07
9.29317e-07
9.28088e-07
9.2809e-07
9.28089e-07
9.2809e-07
9.28088e-07
9.29526e-07
9.29679e-07
9.298e-07
9.30232e-07
9.29622e-07
9.29342e-07
9.28087e-07
9.28088e-07
9.28087e-07
9.29559e-07
9.29679e-07
9.29775e-07
9.30371e-07
9.30235e-07
9.29709e-07
9.2977e-07
9.29762e-07
9.29764e-07
9.29759e-07
9.298e-07
9.30371e-07
9.30249e-07
9.30402e-07
9.30421e-07
9.30421e-07
9.30389e-07
9.21579e-07
9.20882e-07
9.20821e-07
9.20869e-07
9.21595e-07
9.21612e-07
9.21592e-07
9.20979e-07
9.20564e-07
9.19462e-07
9.19463e-07
9.19462e-07
9.20715e-07
9.21e-07
9.21607e-07
9.20979e-07
9.20527e-07
9.19463e-07
9.19465e-07
9.19464e-07
9.19465e-07
9.19463e-07
9.20692e-07
9.20997e-07
9.2161e-07
9.21579e-07
9.20564e-07
9.19463e-07
9.19464e-07
9.19463e-07
9.19464e-07
9.19463e-07
9.19464e-07
9.19463e-07
9.20717e-07
9.21084e-07
9.21624e-07
9.20882e-07
9.19462e-07
9.19465e-07
9.19463e-07
9.19465e-07
9.19464e-07
9.19465e-07
9.19463e-07
9.19465e-07
9.19462e-07
9.21145e-07
9.21777e-07
9.20821e-07
9.19463e-07
9.19464e-07
9.19464e-07
9.19464e-07
9.19464e-07
9.19464e-07
9.19464e-07
9.19464e-07
9.19463e-07
9.21138e-07
9.21796e-07
9.20869e-07
9.19462e-07
9.19465e-07
9.19463e-07
9.19465e-07
9.19464e-07
9.19465e-07
9.19463e-07
9.19465e-07
9.19462e-07
9.21139e-07
9.21796e-07
9.21595e-07
9.20715e-07
9.19463e-07
9.19464e-07
9.19463e-07
9.19464e-07
9.19463e-07
9.19464e-07
9.19463e-07
9.20934e-07
9.21134e-07
9.21765e-07
9.21612e-07
9.21e-07
9.20692e-07
9.19463e-07
9.19465e-07
9.19464e-07
9.19465e-07
9.19463e-07
9.20901e-07
9.21054e-07
9.21175e-07
9.21607e-07
9.20997e-07
9.20717e-07
9.19462e-07
9.19463e-07
9.19462e-07
9.20934e-07
9.21054e-07
9.2115e-07
9.21746e-07
9.2161e-07
9.21084e-07
9.21145e-07
9.21138e-07
9.21139e-07
9.21134e-07
9.21175e-07
9.21746e-07
9.21624e-07
9.21777e-07
9.21796e-07
9.21796e-07
9.21765e-07
9.12954e-07
9.12257e-07
9.12196e-07
9.12244e-07
9.12971e-07
9.12987e-07
9.12967e-07
9.12354e-07
9.11939e-07
9.10838e-07
9.10838e-07
9.10838e-07
9.1209e-07
9.12375e-07
9.12982e-07
9.12354e-07
9.11902e-07
9.10838e-07
9.1084e-07
9.10838e-07
9.1084e-07
9.10838e-07
9.12067e-07
9.12373e-07
9.12985e-07
9.12954e-07
9.11939e-07
9.10838e-07
9.10839e-07
9.10838e-07
9.10839e-07
9.10838e-07
9.10839e-07
9.10838e-07
9.12093e-07
9.12459e-07
9.12999e-07
9.12257e-07
9.10838e-07
9.1084e-07
9.10838e-07
9.1084e-07
9.10839e-07
9.1084e-07
9.10838e-07
9.1084e-07
9.10838e-07
9.1252e-07
9.13152e-07
9.12196e-07
9.10838e-07
9.10838e-07
9.10839e-07
9.10839e-07
9.10839e-07
9.10839e-07
9.10839e-07
9.10838e-07
9.10838e-07
9.12513e-07
9.13171e-07
9.12244e-07
9.10838e-07
9.1084e-07
9.10838e-07
9.1084e-07
9.10839e-07
9.1084e-07
9.10838e-07
9.1084e-07
9.10838e-07
9.12514e-07
9.13171e-07
9.12971e-07
9.1209e-07
9.10838e-07
9.10839e-07
9.10838e-07
9.10839e-07
9.10838e-07
9.10839e-07
9.10838e-07
9.12309e-07
9.1251e-07
9.1314e-07
9.12987e-07
9.12375e-07
9.12067e-07
9.10838e-07
9.1084e-07
9.10838e-07
9.1084e-07
9.10838e-07
9.12276e-07
9.12429e-07
9.1255e-07
9.12982e-07
9.12373e-07
9.12093e-07
9.10838e-07
9.10838e-07
9.10838e-07
9.12309e-07
9.12429e-07
9.12526e-07
9.13121e-07
9.12985e-07
9.12459e-07
9.1252e-07
9.12513e-07
9.12514e-07
9.1251e-07
9.1255e-07
9.13121e-07
9.12999e-07
9.13152e-07
9.13171e-07
9.13171e-07
9.1314e-07
9.04329e-07
9.03632e-07
9.03571e-07
9.03619e-07
9.04346e-07
9.04362e-07
9.04342e-07
9.03729e-07
9.03314e-07
9.02213e-07
9.02213e-07
9.02213e-07
9.03465e-07
9.0375e-07
9.04357e-07
9.03729e-07
9.03277e-07
9.02213e-07
9.02215e-07
9.02214e-07
9.02215e-07
9.02213e-07
9.03442e-07
9.03748e-07
9.0436e-07
9.04329e-07
9.03314e-07
9.02213e-07
9.02214e-07
9.02213e-07
9.02214e-07
9.02213e-07
9.02214e-07
9.02213e-07
9.03468e-07
9.03834e-07
9.04374e-07
9.03632e-07
9.02213e-07
9.02215e-07
9.02213e-07
9.02215e-07
9.02214e-07
9.02215e-07
9.02213e-07
9.02215e-07
9.02213e-07
9.03895e-07
9.04527e-07
9.03571e-07
9.02213e-07
9.02214e-07
9.02214e-07
9.02214e-07
9.02214e-07
9.02214e-07
9.02214e-07
9.02214e-07
9.02213e-07
9.03888e-07
9.04546e-07
9.03619e-07
9.02213e-07
9.02215e-07
9.02213e-07
9.02215e-07
9.02214e-07
9.02215e-07
9.02213e-07
9.02215e-07
9.02213e-07
9.0389e-07
9.04547e-07
9.04346e-07
9.03465e-07
9.02213e-07
9.02214e-07
9.02213e-07
9.02214e-07
9.02213e-07
9.02214e-07
9.02213e-07
9.03684e-07
9.03885e-07
9.04515e-07
9.04362e-07
9.0375e-07
9.03442e-07
9.02213e-07
9.02215e-07
9.02214e-07
9.02215e-07
9.02213e-07
9.03651e-07
9.03805e-07
9.03925e-07
9.04357e-07
9.03748e-07
9.03468e-07
9.02213e-07
9.02213e-07
9.02213e-07
9.03684e-07
9.03805e-07
9.03901e-07
9.04496e-07
9.0436e-07
9.03834e-07
9.03895e-07
9.03888e-07
9.0389e-07
9.03885e-07
9.03925e-07
9.04496e-07
9.04374e-07
9.04527e-07
9.04546e-07
9.04547e-07
9.04515e-07
8.95704e-07
8.95007e-07
8.94946e-07
8.94994e-07
8.95721e-07
8.95738e-07
8.95717e-07
8.95105e-07
8.94689e-07
8.93588e-07
8.93589e-07
8.93588e-07
8.9484e-07
8.95126e-07
8.95732e-07
8.95105e-07
8.94652e-07
8.93588e-07
8.9359e-07
8.93589e-07
8.9359e-07
8.93588e-07
8.94818e-07
8.95123e-07
8.95736e-07
8.95704e-07
8.94689e-07
8.93588e-07
8.93589e-07
8.93588e-07
8.93589e-07
8.93588e-07
8.93589e-07
8.93588e-07
8.94843e-07
8.9521e-07
8.9575e-07
8.95007e-07
8.93588e-07
8.9359e-07
8.93588e-07
8.9359e-07
8.93589e-07
8.9359e-07
8.93588e-07
8.9359e-07
8.93588e-07
8.95271e-07
8.95903e-07
8.94946e-07
8.93589e-07
8.93589e-07
8.93589e-07
8.93589e-07
8.93589e-07
8.93589e-07
8.93589e-07
8.93589e-07
8.93589e-07
8.95263e-07
8.95922e-07
8.94994e-07
8.93588e-07
8.9359e-07
8.93588e-07
8.9359e-07
8.93589e-07
8.9359e-07
8.93588e-07
8.9359e-07
8.93588e-07
8.95265e-07
8.95922e-07
8.95721e-07
8.9484e-07
8.93588e-07
8.93589e-07
8.93588e-07
8.93589e-07
8.93588e-07
8.93589e-07
8.93588e-07
8.9506e-07
8.9526e-07
8.9589e-07
8.95738e-07
8.95126e-07
8.94817e-07
8.93588e-07
8.9359e-07
8.93589e-07
8.9359e-07
8.93588e-07
8.95027e-07
8.9518e-07
8.95301e-07
8.95732e-07
8.95123e-07
8.94843e-07
8.93588e-07
8.93589e-07
8.93588e-07
8.9506e-07
8.9518e-07
8.95276e-07
8.95871e-07
8.95736e-07
8.9521e-07
8.95271e-07
8.95263e-07
8.95265e-07
8.9526e-07
8.95301e-07
8.95871e-07
8.9575e-07
8.95903e-07
8.95922e-07
8.95922e-07
8.9589e-07
8.8708e-07
8.86382e-07
8.86322e-07
8.86369e-07
8.87096e-07
8.87113e-07
8.87093e-07
8.8648e-07
8.86065e-07
8.84963e-07
8.84964e-07
8.84963e-07
8.86216e-07
8.86501e-07
8.87108e-07
8.8648e-07
8.86027e-07
8.84964e-07
8.84965e-07
8.84964e-07
8.84965e-07
8.84964e-07
8.86193e-07
8.86498e-07
8.87111e-07
8.8708e-07
8.86065e-07
8.84964e-07
8.84964e-07
8.84964e-07
8.84964e-07
8.84964e-07
8.84964e-07
8.84964e-07
8.86218e-07
8.86585e-07
8.87125e-07
8.86382e-07
8.84963e-07
8.84965e-07
8.84964e-07
8.84965e-07
8.84964e-07
8.84965e-07
8.84964e-07
8.84965e-07
8.84963e-07
8.86646e-07
8.87278e-07
8.86321e-07
8.84964e-07
8.84964e-07
8.84964e-07
8.84964e-07
8.84964e-07
8.84964e-07
8.84964e-07
8.84964e-07
8.84964e-07
8.86638e-07
8.87297e-07
8.86369e-07
8.84963e-07
8.84965e-07
8.84964e-07
8.84965e-07
8.84964e-07
8.84965e-07
8.84964e-07
8.84965e-07
8.84963e-07
8.8664e-07
8.87297e-07
8.87096e-07
8.86216e-07
8.84964e-07
8.84964e-07
8.84964e-07
8.84964e-07
8.84964e-07
8.84964e-07
8.84963e-07
8.86435e-07
8.86635e-07
8.87265e-07
8.87113e-07
8.86501e-07
8.86193e-07
8.84964e-07
8.84965e-07
8.84964e-07
8.84965e-07
8.84964e-07
8.86402e-07
8.86555e-07
8.86676e-07
8.87108e-07
8.86498e-07
8.86218e-07
8.84963e-07
8.84964e-07
8.84963e-07
8.86435e-07
8.86555e-07
8.86651e-07
8.87246e-07
8.87111e-07
8.86585e-07
8.86646e-07
8.86638e-07
8.8664e-07
8.86635e-07
8.86676e-07
8.87246e-07
8.87125e-07
8.87278e-07
8.87297e-07
8.87297e-07
8.87265e-07
8.78455e-07
8.77758e-07
8.77697e-07
8.77744e-07
8.78471e-07
8.78488e-07
8.78468e-07
8.77855e-07
8.7744e-07
8.76338e-07
8.76339e-07
8.76338e-07
8.77591e-07
8.77876e-07
8.78483e-07
8.77855e-07
8.77402e-07
8.76339e-07
8.7634e-07
8.76339e-07
8.7634e-07
8.76339e-07
8.77568e-07
8.77873e-07
8.78486e-07
8.78455e-07
8.7744e-07
8.76339e-07
8.76339e-07
8.76339e-07
8.76339e-07
8.76339e-07
8.76339e-07
8.76339e-07
8.77593e-07
8.7796e-07
8.785e-07
8.77758e-07
8.76338e-07
8.7634e-07
8.76339e-07
8.7634e-07
8.76339e-07
8.7634e-07
8.76339e-07
8.7634e-07
8.76338e-07
8.78021e-07
8.78653e-07
8.77697e-07
8.76339e-07
8.76339e-07
8.76339e-07
8.76339e-07
8.76339e-07
8.76339e-07
8.76339e-07
8.76339e-07
8.76339e-07
8.78013e-07
8.78672e-07
8.77744e-07
8.76338e-07
8.7634e-07
8.76339e-07
8.7634e-07
8.76339e-07
8.7634e-07
8.76339e-07
8.7634e-07
8.76338e-07
8.78015e-07
8.78672e-07
8.78471e-07
8.77591e-07
8.76339e-07
8.76339e-07
8.76339e-07
8.76339e-07
8.76339e-07
8.76339e-07
8.76339e-07
8.7781e-07
8.7801e-07
8.7864e-07
8.78488e-07
8.77876e-07
8.77568e-07
8.76339e-07
8.7634e-07
8.76339e-07
8.7634e-07
8.76339e-07
8.77777e-07
8.7793e-07
8.78051e-07
8.78483e-07
8.77873e-07
8.77593e-07
8.76338e-07
8.76339e-07
8.76338e-07
8.7781e-07
8.7793e-07
8.78026e-07
8.78622e-07
8.78486e-07
8.7796e-07
8.78021e-07
8.78013e-07
8.78015e-07
8.7801e-07
8.78051e-07
8.78622e-07
8.785e-07
8.78653e-07
8.78672e-07
8.78672e-07
8.7864e-07
8.6983e-07
8.69133e-07
8.69072e-07
8.6912e-07
8.69846e-07
8.69863e-07
8.69843e-07
8.6923e-07
8.68815e-07
8.67713e-07
8.67714e-07
8.67713e-07
8.68966e-07
8.69251e-07
8.69858e-07
8.6923e-07
8.68778e-07
8.67714e-07
8.67715e-07
8.67714e-07
8.67715e-07
8.67714e-07
8.68943e-07
8.69249e-07
8.69861e-07
8.6983e-07
8.68815e-07
8.67714e-07
8.67715e-07
8.67714e-07
8.67714e-07
8.67714e-07
8.67715e-07
8.67714e-07
8.68968e-07
8.69335e-07
8.69875e-07
8.69133e-07
8.67713e-07
8.67715e-07
8.67714e-07
8.67715e-07
8.67714e-07
8.67715e-07
8.67714e-07
8.67715e-07
8.67713e-07
8.69396e-07
8.70028e-07
8.69072e-07
8.67714e-07
8.67714e-07
8.67714e-07
8.67714e-07
8.67714e-07
8.67714e-07
8.67714e-07
8.67714e-07
8.67714e-07
8.69389e-07
8.70047e-07
8.6912e-07
8.67713e-07
8.67715e-07
8.67714e-07
8.67715e-07
8.67714e-07
8.67715e-07
8.67714e-07
8.67715e-07
8.67713e-07
8.6939e-07
8.70047e-07
8.69846e-07
8.68966e-07
8.67714e-07
8.67715e-07
8.67714e-07
8.67714e-07
8.67714e-07
8.67715e-07
8.67714e-07
8.69185e-07
8.69385e-07
8.70016e-07
8.69863e-07
8.69251e-07
8.68943e-07
8.67714e-07
8.67715e-07
8.67714e-07
8.67715e-07
8.67714e-07
8.69152e-07
8.69305e-07
8.69426e-07
8.69858e-07
8.69249e-07
8.68968e-07
8.67713e-07
8.67714e-07
8.67713e-07
8.69185e-07
8.69305e-07
8.69401e-07
8.69997e-07
8.69861e-07
8.69335e-07
8.69396e-07
8.69389e-07
8.6939e-07
8.69385e-07
8.69426e-07
8.69997e-07
8.69875e-07
8.70028e-07
8.70047e-07
8.70047e-07
8.70016e-07
8.61205e-07
8.60508e-07
8.60447e-07
8.60495e-07
8.61222e-07
8.61238e-07
8.61218e-07
8.60605e-07
8.6019e-07
8.59089e-07
8.59089e-07
8.59089e-07
8.60341e-07
8.60626e-07
8.61233e-07
8.60605e-07
8.60153e-07
8.59089e-07
8.59091e-07
8.59089e-07
8.59091e-07
8.59089e-07
8.60318e-07
8.60624e-07
8.61236e-07
8.61205e-07
8.6019e-07
8.59089e-07
8.5909e-07
8.59089e-07
8.5909e-07
8.59089e-07
8.5909e-07
8.59089e-07
8.60344e-07
8.6071e-07
8.6125e-07
8.60508e-07
8.59089e-07
8.59091e-07
8.59089e-07
8.5909e-07
8.59089e-07
8.59091e-07
8.59089e-07
8.59091e-07
8.59089e-07
8.60771e-07
8.61403e-07
8.60447e-07
8.59089e-07
8.59089e-07
8.5909e-07
8.59089e-07
8.5909e-07
8.59089e-07
8.5909e-07
8.59089e-07
8.59089e-07
8.60764e-07
8.61422e-07
8.60495e-07
8.59089e-07
8.59091e-07
8.59089e-07
8.5909e-07
8.59089e-07
8.5909e-07
8.59089e-07
8.59091e-07
8.59089e-07
8.60765e-07
8.61422e-07
8.61222e-07
8.60341e-07
8.59089e-07
8.5909e-07
8.59089e-07
8.5909e-07
8.59089e-07
8.5909e-07
8.59089e-07
8.6056e-07
8.60761e-07
8.61391e-07
8.61238e-07
8.60626e-07
8.60318e-07
8.59089e-07
8.59091e-07
8.59089e-07
8.59091e-07
8.59089e-07
8.60527e-07
8.60681e-07
8.60801e-07
8.61233e-07
8.60624e-07
8.60344e-07
8.59089e-07
8.59089e-07
8.59089e-07
8.6056e-07
8.60681e-07
8.60777e-07
8.61372e-07
8.61236e-07
8.6071e-07
8.60771e-07
8.60764e-07
8.60765e-07
8.60761e-07
8.60801e-07
8.61372e-07
8.6125e-07
8.61403e-07
8.61422e-07
8.61422e-07
8.61391e-07
8.5258e-07
8.51883e-07
8.51822e-07
8.5187e-07
8.52597e-07
8.52613e-07
8.52593e-07
8.5198e-07
8.51565e-07
8.50464e-07
8.50464e-07
8.50464e-07
8.51716e-07
8.52001e-07
8.52608e-07
8.5198e-07
8.51528e-07
8.50464e-07
8.50466e-07
8.50465e-07
8.50466e-07
8.50464e-07
8.51693e-07
8.51999e-07
8.52611e-07
8.5258e-07
8.51565e-07
8.50464e-07
8.50465e-07
8.50464e-07
8.50465e-07
8.50464e-07
8.50465e-07
8.50464e-07
8.51719e-07
8.52085e-07
8.52625e-07
8.51883e-07
8.50464e-07
8.50466e-07
8.50464e-07
8.50466e-07
8.50464e-07
8.50466e-07
8.50464e-07
8.50466e-07
8.50464e-07
8.52146e-07
8.52778e-07
8.51822e-07
8.50464e-07
8.50465e-07
8.50465e-07
8.50464e-07
8.50465e-07
8.50464e-07
8.50465e-07
8.50465e-07
8.50464e-07
8.52139e-07
8.52797e-07
8.5187e-07
8.50464e-07
8.50466e-07
8.50464e-07
8.50466e-07
8.50464e-07
8.50466e-07
8.50464e-07
8.50466e-07
8.50464e-07
8.52141e-07
8.52798e-07