/*--------------------------------*- C++ -*----------------------------------*\
| =========                 |                                                 |
| \\      /  F ield         | OpenFOAM: The Open Source CFD Toolbox           |
|  \\    /   O peration     | Version:  v2012                                 |
|   \\  /    A nd           | Website:  www.openfoam.com                      |
|    \\/     M anipulation  |                                                 |
\*---------------------------------------------------------------------------*/
FoamFile
{
    version     2.0;
    format      ascii;
    class       volScalarField;
    location    "11";
    object      p;
}
// * * * * * * * * * * * * * * * * * * * * * * * * * * * * * * * * * * * * * //

dimensions      [0 2 -2 0 0 0 0];


internalField   nonuniform List<scalar> 
292667
(
1.83863e-06
1.82351e-06
1.82213e-06
1.82227e-06
1.82427e-06
1.83968e-06
1.82386e-06
1.81909e-06
1.81641e-06
1.81533e-06
1.81547e-06
1.81691e-06
1.82007e-06
1.82537e-06
1.82385e-06
1.81775e-06
1.81417e-06
1.81223e-06
1.81141e-06
1.81152e-06
1.81259e-06
1.81488e-06
1.81901e-06
1.82582e-06
1.83863e-06
1.81909e-06
1.81417e-06
1.81135e-06
1.80978e-06
1.80911e-06
1.8092e-06
1.81008e-06
1.81192e-06
1.81515e-06
1.82081e-06
1.83982e-06
1.82351e-06
1.81641e-06
1.81223e-06
1.80978e-06
1.8084e-06
1.8078e-06
1.80788e-06
1.80866e-06
1.81028e-06
1.81307e-06
1.81789e-06
1.83002e-06
1.82213e-06
1.81533e-06
1.81141e-06
1.80911e-06
1.8078e-06
1.80723e-06
1.80731e-06
1.80805e-06
1.80957e-06
1.8122e-06
1.81671e-06
1.82699e-06
1.82227e-06
1.81547e-06
1.81152e-06
1.8092e-06
1.80788e-06
1.80731e-06
1.80739e-06
1.80814e-06
1.80967e-06
1.81231e-06
1.81686e-06
1.82721e-06
1.82427e-06
1.81691e-06
1.81259e-06
1.81008e-06
1.80866e-06
1.80805e-06
1.80814e-06
1.80894e-06
1.81059e-06
1.81346e-06
1.81843e-06
1.83055e-06
1.83968e-06
1.82007e-06
1.81488e-06
1.81192e-06
1.81028e-06
1.80957e-06
1.80967e-06
1.81059e-06
1.81251e-06
1.81592e-06
1.82182e-06
1.84032e-06
1.82537e-06
1.81901e-06
1.81515e-06
1.81307e-06
1.8122e-06
1.81231e-06
1.81346e-06
1.81592e-06
1.82035e-06
1.83094e-06
1.82582e-06
1.82081e-06
1.81789e-06
1.81671e-06
1.81686e-06
1.81843e-06
1.82182e-06
1.83094e-06
1.83982e-06
1.83002e-06
1.82699e-06
1.82721e-06
1.83055e-06
1.84032e-06
1.79622e-06
1.79453e-06
1.79446e-06
1.79452e-06
1.79593e-06
1.79605e-06
1.79632e-06
1.79492e-06
1.79433e-06
1.79187e-06
1.7918e-06
1.79187e-06
1.79431e-06
1.79471e-06
1.79612e-06
1.79492e-06
1.79434e-06
1.79203e-06
1.79185e-06
1.79183e-06
1.79185e-06
1.79203e-06
1.79422e-06
1.79471e-06
1.79608e-06
1.79622e-06
1.79433e-06
1.79203e-06
1.79191e-06
1.79187e-06
1.79185e-06
1.79187e-06
1.79191e-06
1.79202e-06
1.79419e-06
1.79475e-06
1.79632e-06
1.79453e-06
1.79187e-06
1.79185e-06
1.79187e-06
1.79183e-06
1.79182e-06
1.79183e-06
1.79187e-06
1.79185e-06
1.79187e-06
1.79462e-06
1.79604e-06
1.79446e-06
1.79181e-06
1.79183e-06
1.79185e-06
1.79182e-06
1.7918e-06
1.79182e-06
1.79185e-06
1.79183e-06
1.7918e-06
1.79448e-06
1.79571e-06
1.79452e-06
1.79187e-06
1.79185e-06
1.79187e-06
1.79183e-06
1.79182e-06
1.79183e-06
1.79187e-06
1.79185e-06
1.79187e-06
1.79454e-06
1.79579e-06
1.79593e-06
1.79431e-06
1.79203e-06
1.79191e-06
1.79187e-06
1.79185e-06
1.79187e-06
1.79191e-06
1.79203e-06
1.79407e-06
1.79471e-06
1.79615e-06
1.79605e-06
1.79471e-06
1.79422e-06
1.79202e-06
1.79185e-06
1.79183e-06
1.79185e-06
1.79203e-06
1.79406e-06
1.79456e-06
1.79485e-06
1.79612e-06
1.79471e-06
1.79419e-06
1.79187e-06
1.7918e-06
1.79187e-06
1.79407e-06
1.79456e-06
1.79496e-06
1.7963e-06
1.79608e-06
1.79475e-06
1.79462e-06
1.79448e-06
1.79454e-06
1.79471e-06
1.79485e-06
1.7963e-06
1.79632e-06
1.79604e-06
1.79571e-06
1.79579e-06
1.79615e-06
1.78082e-06
1.77925e-06
1.77921e-06
1.77922e-06
1.78064e-06
1.78082e-06
1.78093e-06
1.77949e-06
1.77893e-06
1.77641e-06
1.7764e-06
1.77641e-06
1.77893e-06
1.77934e-06
1.78071e-06
1.77948e-06
1.77893e-06
1.77648e-06
1.77644e-06
1.77646e-06
1.77644e-06
1.77648e-06
1.77886e-06
1.77932e-06
1.78072e-06
1.78082e-06
1.77893e-06
1.77648e-06
1.77647e-06
1.77652e-06
1.77653e-06
1.77652e-06
1.77647e-06
1.77648e-06
1.77884e-06
1.7794e-06
1.78088e-06
1.77925e-06
1.77641e-06
1.77644e-06
1.77652e-06
1.77655e-06
1.77656e-06
1.77655e-06
1.77652e-06
1.77644e-06
1.77641e-06
1.77928e-06
1.78087e-06
1.77922e-06
1.7764e-06
1.77646e-06
1.77653e-06
1.77656e-06
1.77656e-06
1.77656e-06
1.77653e-06
1.77646e-06
1.7764e-06
1.77919e-06
1.78079e-06
1.77922e-06
1.77641e-06
1.77644e-06
1.77652e-06
1.77655e-06
1.77656e-06
1.77655e-06
1.77652e-06
1.77644e-06
1.77641e-06
1.77923e-06
1.78079e-06
1.78064e-06
1.77893e-06
1.77648e-06
1.77647e-06
1.77652e-06
1.77653e-06
1.77652e-06
1.77647e-06
1.77648e-06
1.77878e-06
1.77936e-06
1.78092e-06
1.78082e-06
1.77934e-06
1.77886e-06
1.77648e-06
1.77644e-06
1.77646e-06
1.77644e-06
1.77648e-06
1.77876e-06
1.77919e-06
1.77953e-06
1.78071e-06
1.77932e-06
1.77884e-06
1.77641e-06
1.7764e-06
1.77641e-06
1.77878e-06
1.77919e-06
1.77952e-06
1.78093e-06
1.78072e-06
1.7794e-06
1.77928e-06
1.77919e-06
1.77923e-06
1.77936e-06
1.77953e-06
1.78093e-06
1.78088e-06
1.78087e-06
1.78079e-06
1.78079e-06
1.78092e-06
1.76565e-06
1.76405e-06
1.764e-06
1.76401e-06
1.76546e-06
1.76565e-06
1.76576e-06
1.76428e-06
1.76367e-06
1.76112e-06
1.76111e-06
1.76112e-06
1.76368e-06
1.76415e-06
1.76553e-06
1.76428e-06
1.76365e-06
1.76116e-06
1.76115e-06
1.76117e-06
1.76115e-06
1.76116e-06
1.76361e-06
1.76413e-06
1.76554e-06
1.76565e-06
1.76367e-06
1.76116e-06
1.76117e-06
1.76122e-06
1.76123e-06
1.76122e-06
1.76117e-06
1.76116e-06
1.76362e-06
1.76423e-06
1.76572e-06
1.76405e-06
1.76112e-06
1.76115e-06
1.76122e-06
1.76125e-06
1.76126e-06
1.76125e-06
1.76122e-06
1.76115e-06
1.76112e-06
1.76408e-06
1.76569e-06
1.764e-06
1.76111e-06
1.76117e-06
1.76123e-06
1.76126e-06
1.76127e-06
1.76126e-06
1.76123e-06
1.76117e-06
1.76111e-06
1.764e-06
1.76561e-06
1.76401e-06
1.76112e-06
1.76115e-06
1.76122e-06
1.76125e-06
1.76126e-06
1.76125e-06
1.76122e-06
1.76115e-06
1.76112e-06
1.76403e-06
1.76561e-06
1.76546e-06
1.76368e-06
1.76116e-06
1.76117e-06
1.76122e-06
1.76123e-06
1.76122e-06
1.76117e-06
1.76116e-06
1.76358e-06
1.76417e-06
1.76573e-06
1.76565e-06
1.76415e-06
1.76361e-06
1.76116e-06
1.76115e-06
1.76117e-06
1.76115e-06
1.76116e-06
1.76355e-06
1.76399e-06
1.76435e-06
1.76553e-06
1.76413e-06
1.76362e-06
1.76112e-06
1.76111e-06
1.76112e-06
1.76358e-06
1.76399e-06
1.76432e-06
1.76577e-06
1.76554e-06
1.76423e-06
1.76408e-06
1.764e-06
1.76403e-06
1.76417e-06
1.76435e-06
1.76576e-06
1.76572e-06
1.76569e-06
1.76561e-06
1.76561e-06
1.76573e-06
1.75045e-06
1.74884e-06
1.74879e-06
1.7488e-06
1.75026e-06
1.75046e-06
1.75056e-06
1.74907e-06
1.74843e-06
1.74587e-06
1.74587e-06
1.74587e-06
1.74845e-06
1.74894e-06
1.75033e-06
1.74907e-06
1.7484e-06
1.7459e-06
1.7459e-06
1.74591e-06
1.7459e-06
1.7459e-06
1.74838e-06
1.74892e-06
1.75035e-06
1.75045e-06
1.74843e-06
1.7459e-06
1.74591e-06
1.74594e-06
1.74595e-06
1.74594e-06
1.74591e-06
1.7459e-06
1.74839e-06
1.74903e-06
1.75052e-06
1.74884e-06
1.74587e-06
1.7459e-06
1.74594e-06
1.74596e-06
1.74597e-06
1.74596e-06
1.74594e-06
1.7459e-06
1.74587e-06
1.74888e-06
1.75049e-06
1.74879e-06
1.74587e-06
1.74591e-06
1.74595e-06
1.74597e-06
1.74598e-06
1.74597e-06
1.74595e-06
1.74591e-06
1.74587e-06
1.74879e-06
1.75041e-06
1.7488e-06
1.74587e-06
1.7459e-06
1.74594e-06
1.74596e-06
1.74597e-06
1.74596e-06
1.74594e-06
1.7459e-06
1.74587e-06
1.74882e-06
1.75041e-06
1.75026e-06
1.74845e-06
1.7459e-06
1.74591e-06
1.74594e-06
1.74595e-06
1.74594e-06
1.74591e-06
1.7459e-06
1.74837e-06
1.74897e-06
1.75054e-06
1.75046e-06
1.74894e-06
1.74838e-06
1.7459e-06
1.7459e-06
1.74591e-06
1.7459e-06
1.7459e-06
1.74834e-06
1.74878e-06
1.74915e-06
1.75033e-06
1.74892e-06
1.74839e-06
1.74587e-06
1.74587e-06
1.74587e-06
1.74838e-06
1.74878e-06
1.74912e-06
1.75057e-06
1.75035e-06
1.74903e-06
1.74888e-06
1.74879e-06
1.74882e-06
1.74897e-06
1.74915e-06
1.75057e-06
1.75052e-06
1.75049e-06
1.75041e-06
1.75041e-06
1.75054e-06
1.73525e-06
1.73363e-06
1.73358e-06
1.73359e-06
1.73505e-06
1.73525e-06
1.73535e-06
1.73386e-06
1.73321e-06
1.73065e-06
1.73065e-06
1.73065e-06
1.73323e-06
1.73374e-06
1.73513e-06
1.73386e-06
1.73318e-06
1.73066e-06
1.73067e-06
1.73067e-06
1.73067e-06
1.73066e-06
1.73316e-06
1.73372e-06
1.73514e-06
1.73525e-06
1.73321e-06
1.73066e-06
1.73067e-06
1.73069e-06
1.73069e-06
1.73069e-06
1.73067e-06
1.73066e-06
1.73318e-06
1.73382e-06
1.73531e-06
1.73363e-06
1.73065e-06
1.73067e-06
1.73069e-06
1.7307e-06
1.73071e-06
1.7307e-06
1.73069e-06
1.73067e-06
1.73065e-06
1.73367e-06
1.73528e-06
1.73358e-06
1.73065e-06
1.73067e-06
1.73069e-06
1.73071e-06
1.73072e-06
1.73071e-06
1.73069e-06
1.73067e-06
1.73065e-06
1.73358e-06
1.7352e-06
1.73359e-06
1.73065e-06
1.73067e-06
1.73069e-06
1.7307e-06
1.73071e-06
1.7307e-06
1.73069e-06
1.73067e-06
1.73065e-06
1.73361e-06
1.7352e-06
1.73505e-06
1.73323e-06
1.73066e-06
1.73067e-06
1.73069e-06
1.73069e-06
1.73069e-06
1.73067e-06
1.73066e-06
1.73316e-06
1.73376e-06
1.73533e-06
1.73525e-06
1.73374e-06
1.73316e-06
1.73066e-06
1.73067e-06
1.73067e-06
1.73067e-06
1.73066e-06
1.73313e-06
1.73358e-06
1.73394e-06
1.73513e-06
1.73372e-06
1.73318e-06
1.73065e-06
1.73065e-06
1.73065e-06
1.73316e-06
1.73358e-06
1.73391e-06
1.73536e-06
1.73514e-06
1.73382e-06
1.73367e-06
1.73358e-06
1.73361e-06
1.73376e-06
1.73394e-06
1.73536e-06
1.73531e-06
1.73528e-06
1.7352e-06
1.7352e-06
1.73533e-06
1.72004e-06
1.71842e-06
1.71837e-06
1.71838e-06
1.71984e-06
1.72004e-06
1.72014e-06
1.71865e-06
1.718e-06
1.71543e-06
1.71544e-06
1.71543e-06
1.71802e-06
1.71853e-06
1.71992e-06
1.71865e-06
1.71797e-06
1.71544e-06
1.71544e-06
1.71545e-06
1.71544e-06
1.71544e-06
1.71795e-06
1.71851e-06
1.71993e-06
1.72004e-06
1.718e-06
1.71544e-06
1.71545e-06
1.71546e-06
1.71546e-06
1.71546e-06
1.71545e-06
1.71544e-06
1.71797e-06
1.71861e-06
1.72011e-06
1.71842e-06
1.71543e-06
1.71544e-06
1.71546e-06
1.71547e-06
1.71547e-06
1.71547e-06
1.71546e-06
1.71544e-06
1.71543e-06
1.71846e-06
1.72008e-06
1.71837e-06
1.71544e-06
1.71545e-06
1.71546e-06
1.71547e-06
1.71547e-06
1.71547e-06
1.71546e-06
1.71545e-06
1.71543e-06
1.71837e-06
1.71999e-06
1.71838e-06
1.71543e-06
1.71544e-06
1.71546e-06
1.71547e-06
1.71547e-06
1.71547e-06
1.71546e-06
1.71544e-06
1.71543e-06
1.71841e-06
1.71999e-06
1.71984e-06
1.71802e-06
1.71544e-06
1.71545e-06
1.71546e-06
1.71546e-06
1.71546e-06
1.71545e-06
1.71544e-06
1.71796e-06
1.71855e-06
1.72012e-06
1.72004e-06
1.71853e-06
1.71795e-06
1.71544e-06
1.71544e-06
1.71545e-06
1.71544e-06
1.71544e-06
1.71792e-06
1.71837e-06
1.71874e-06
1.71992e-06
1.71851e-06
1.71796e-06
1.71543e-06
1.71544e-06
1.71543e-06
1.71795e-06
1.71837e-06
1.7187e-06
1.72015e-06
1.71993e-06
1.71861e-06
1.71846e-06
1.71837e-06
1.7184e-06
1.71855e-06
1.71874e-06
1.72016e-06
1.72011e-06
1.72008e-06
1.71999e-06
1.71999e-06
1.72012e-06
1.70483e-06
1.70321e-06
1.70316e-06
1.70317e-06
1.70463e-06
1.70483e-06
1.70494e-06
1.70344e-06
1.70279e-06
1.70022e-06
1.70022e-06
1.70022e-06
1.70281e-06
1.70332e-06
1.70471e-06
1.70344e-06
1.70275e-06
1.70022e-06
1.70023e-06
1.70023e-06
1.70023e-06
1.70022e-06
1.70273e-06
1.7033e-06
1.70472e-06
1.70483e-06
1.70279e-06
1.70022e-06
1.70023e-06
1.70023e-06
1.70024e-06
1.70023e-06
1.70023e-06
1.70022e-06
1.70275e-06
1.7034e-06
1.7049e-06
1.70321e-06
1.70022e-06
1.70023e-06
1.70023e-06
1.70024e-06
1.70024e-06
1.70024e-06
1.70023e-06
1.70023e-06
1.70022e-06
1.70325e-06
1.70487e-06
1.70316e-06
1.70022e-06
1.70023e-06
1.70024e-06
1.70024e-06
1.70024e-06
1.70024e-06
1.70024e-06
1.70023e-06
1.70022e-06
1.70316e-06
1.70478e-06
1.70317e-06
1.70022e-06
1.70023e-06
1.70023e-06
1.70024e-06
1.70024e-06
1.70024e-06
1.70023e-06
1.70023e-06
1.70022e-06
1.7032e-06
1.70478e-06
1.70463e-06
1.70281e-06
1.70022e-06
1.70023e-06
1.70023e-06
1.70024e-06
1.70023e-06
1.70023e-06
1.70022e-06
1.70274e-06
1.70334e-06
1.70491e-06
1.70483e-06
1.70332e-06
1.70273e-06
1.70022e-06
1.70023e-06
1.70023e-06
1.70023e-06
1.70022e-06
1.70271e-06
1.70316e-06
1.70353e-06
1.70471e-06
1.7033e-06
1.70275e-06
1.70022e-06
1.70022e-06
1.70022e-06
1.70274e-06
1.70316e-06
1.70349e-06
1.70495e-06
1.70472e-06
1.7034e-06
1.70325e-06
1.70316e-06
1.7032e-06
1.70335e-06
1.70353e-06
1.70495e-06
1.7049e-06
1.70487e-06
1.70478e-06
1.70478e-06
1.70491e-06
1.68962e-06
1.688e-06
1.68795e-06
1.68796e-06
1.68942e-06
1.68962e-06
1.68973e-06
1.68823e-06
1.68758e-06
1.68501e-06
1.68501e-06
1.68501e-06
1.6876e-06
1.68811e-06
1.6895e-06
1.68823e-06
1.68754e-06
1.68501e-06
1.68501e-06
1.68501e-06
1.68501e-06
1.68501e-06
1.68752e-06
1.68809e-06
1.68951e-06
1.68962e-06
1.68758e-06
1.68501e-06
1.68501e-06
1.68502e-06
1.68502e-06
1.68502e-06
1.68501e-06
1.68501e-06
1.68754e-06
1.68819e-06
1.68969e-06
1.688e-06
1.68501e-06
1.68501e-06
1.68502e-06
1.68502e-06
1.68502e-06
1.68502e-06
1.68502e-06
1.68501e-06
1.68501e-06
1.68804e-06
1.68966e-06
1.68795e-06
1.68501e-06
1.68501e-06
1.68502e-06
1.68502e-06
1.68502e-06
1.68502e-06
1.68502e-06
1.68501e-06
1.68501e-06
1.68795e-06
1.68957e-06
1.68796e-06
1.68501e-06
1.68501e-06
1.68502e-06
1.68502e-06
1.68502e-06
1.68502e-06
1.68502e-06
1.68501e-06
1.68501e-06
1.68799e-06
1.68957e-06
1.68942e-06
1.6876e-06
1.68501e-06
1.68501e-06
1.68502e-06
1.68502e-06
1.68502e-06
1.68501e-06
1.68501e-06
1.68754e-06
1.68814e-06
1.6897e-06
1.68962e-06
1.68811e-06
1.68752e-06
1.68501e-06
1.68501e-06
1.68501e-06
1.68501e-06
1.68501e-06
1.6875e-06
1.68795e-06
1.68832e-06
1.6895e-06
1.68809e-06
1.68754e-06
1.68501e-06
1.68501e-06
1.68501e-06
1.68753e-06
1.68795e-06
1.68828e-06
1.68974e-06
1.68951e-06
1.68819e-06
1.68804e-06
1.68795e-06
1.68799e-06
1.68814e-06
1.68832e-06
1.68973e-06
1.68969e-06
1.68966e-06
1.68957e-06
1.68957e-06
1.6897e-06
1.67441e-06
1.67279e-06
1.67274e-06
1.67275e-06
1.67421e-06
1.67441e-06
1.67452e-06
1.67302e-06
1.67237e-06
1.6698e-06
1.6698e-06
1.6698e-06
1.67239e-06
1.6729e-06
1.67429e-06
1.67302e-06
1.67233e-06
1.6698e-06
1.6698e-06
1.6698e-06
1.6698e-06
1.6698e-06
1.67231e-06
1.67288e-06
1.6743e-06
1.67441e-06
1.67237e-06
1.6698e-06
1.6698e-06
1.6698e-06
1.6698e-06
1.6698e-06
1.6698e-06
1.6698e-06
1.67233e-06
1.67298e-06
1.67448e-06
1.67279e-06
1.6698e-06
1.6698e-06
1.6698e-06
1.6698e-06
1.66981e-06
1.6698e-06
1.6698e-06
1.6698e-06
1.6698e-06
1.67283e-06
1.67445e-06
1.67274e-06
1.6698e-06
1.6698e-06
1.6698e-06
1.66981e-06
1.66981e-06
1.66981e-06
1.6698e-06
1.6698e-06
1.6698e-06
1.67274e-06
1.67436e-06
1.67275e-06
1.6698e-06
1.6698e-06
1.6698e-06
1.6698e-06
1.66981e-06
1.6698e-06
1.6698e-06
1.6698e-06
1.6698e-06
1.67278e-06
1.67436e-06
1.67421e-06
1.67239e-06
1.6698e-06
1.6698e-06
1.6698e-06
1.6698e-06
1.6698e-06
1.6698e-06
1.6698e-06
1.67232e-06
1.67293e-06
1.67449e-06
1.67441e-06
1.6729e-06
1.67231e-06
1.6698e-06
1.6698e-06
1.6698e-06
1.6698e-06
1.6698e-06
1.67229e-06
1.67274e-06
1.67311e-06
1.67429e-06
1.67288e-06
1.67233e-06
1.6698e-06
1.6698e-06
1.6698e-06
1.67232e-06
1.67274e-06
1.67307e-06
1.67453e-06
1.6743e-06
1.67298e-06
1.67283e-06
1.67274e-06
1.67278e-06
1.67293e-06
1.67311e-06
1.67453e-06
1.67448e-06
1.67445e-06
1.67436e-06
1.67436e-06
1.67449e-06
1.6592e-06
1.65758e-06
1.65753e-06
1.65754e-06
1.659e-06
1.6592e-06
1.65931e-06
1.65781e-06
1.65716e-06
1.65459e-06
1.65459e-06
1.65459e-06
1.65718e-06
1.65769e-06
1.65908e-06
1.65781e-06
1.65712e-06
1.65459e-06
1.65459e-06
1.65459e-06
1.65459e-06
1.65459e-06
1.6571e-06
1.65767e-06
1.65909e-06
1.6592e-06
1.65716e-06
1.65459e-06
1.65459e-06
1.65459e-06
1.65459e-06
1.65459e-06
1.65459e-06
1.65459e-06
1.65712e-06
1.65778e-06
1.65927e-06
1.65758e-06
1.65459e-06
1.65459e-06
1.65459e-06
1.65459e-06
1.65459e-06
1.65459e-06
1.65459e-06
1.65459e-06
1.65459e-06
1.65762e-06
1.65924e-06
1.65753e-06
1.65459e-06
1.65459e-06
1.65459e-06
1.65459e-06
1.65459e-06
1.65459e-06
1.65459e-06
1.65459e-06
1.65459e-06
1.65753e-06
1.65915e-06
1.65754e-06
1.65459e-06
1.65459e-06
1.65459e-06
1.65459e-06
1.65459e-06
1.65459e-06
1.65459e-06
1.65459e-06
1.65459e-06
1.65756e-06
1.65916e-06
1.659e-06
1.65718e-06
1.65459e-06
1.65459e-06
1.65459e-06
1.65459e-06
1.65459e-06
1.65459e-06
1.65459e-06
1.65712e-06
1.65772e-06
1.65928e-06
1.6592e-06
1.65769e-06
1.6571e-06
1.65459e-06
1.65459e-06
1.65459e-06
1.65459e-06
1.65459e-06
1.65708e-06
1.65753e-06
1.6579e-06
1.65908e-06
1.65767e-06
1.65712e-06
1.65459e-06
1.65459e-06
1.65459e-06
1.65711e-06
1.65753e-06
1.65786e-06
1.65932e-06
1.65909e-06
1.65778e-06
1.65762e-06
1.65753e-06
1.65757e-06
1.65772e-06
1.6579e-06
1.65932e-06
1.65927e-06
1.65924e-06
1.65915e-06
1.65915e-06
1.65928e-06
1.64399e-06
1.64237e-06
1.64232e-06
1.64233e-06
1.64379e-06
1.64399e-06
1.6441e-06
1.6426e-06
1.64195e-06
1.63938e-06
1.63938e-06
1.63938e-06
1.64197e-06
1.64248e-06
1.64387e-06
1.6426e-06
1.64191e-06
1.63938e-06
1.63938e-06
1.63938e-06
1.63938e-06
1.63938e-06
1.64189e-06
1.64246e-06
1.64388e-06
1.64399e-06
1.64195e-06
1.63938e-06
1.63938e-06
1.63938e-06
1.63938e-06
1.63938e-06
1.63938e-06
1.63938e-06
1.64191e-06
1.64257e-06
1.64406e-06
1.64237e-06
1.63938e-06
1.63938e-06
1.63938e-06
1.63938e-06
1.63938e-06
1.63938e-06
1.63938e-06
1.63938e-06
1.63938e-06
1.64241e-06
1.64403e-06
1.64232e-06
1.63938e-06
1.63938e-06
1.63938e-06
1.63938e-06
1.63938e-06
1.63938e-06
1.63938e-06
1.63938e-06
1.63938e-06
1.64232e-06
1.64394e-06
1.64233e-06
1.63938e-06
1.63938e-06
1.63938e-06
1.63938e-06
1.63938e-06
1.63938e-06
1.63938e-06
1.63938e-06
1.63938e-06
1.64236e-06
1.64395e-06
1.64379e-06
1.64197e-06
1.63938e-06
1.63938e-06
1.63938e-06
1.63938e-06
1.63938e-06
1.63938e-06
1.63938e-06
1.6419e-06
1.64251e-06
1.64407e-06
1.64399e-06
1.64248e-06
1.64189e-06
1.63938e-06
1.63938e-06
1.63938e-06
1.63938e-06
1.63938e-06
1.64187e-06
1.64232e-06
1.64269e-06
1.64387e-06
1.64246e-06
1.64191e-06
1.63938e-06
1.63938e-06
1.63938e-06
1.6419e-06
1.64232e-06
1.64265e-06
1.64411e-06
1.64388e-06
1.64257e-06
1.64241e-06
1.64232e-06
1.64236e-06
1.64251e-06
1.64269e-06
1.64411e-06
1.64406e-06
1.64403e-06
1.64394e-06
1.64394e-06
1.64407e-06
1.62878e-06
1.62716e-06
1.62711e-06
1.62712e-06
1.62858e-06
1.62878e-06
1.62889e-06
1.62739e-06
1.62674e-06
1.62417e-06
1.62417e-06
1.62417e-06
1.62676e-06
1.62727e-06
1.62866e-06
1.62739e-06
1.6267e-06
1.62417e-06
1.62417e-06
1.62417e-06
1.62417e-06
1.62417e-06
1.62668e-06
1.62725e-06
1.62867e-06
1.62878e-06
1.62674e-06
1.62417e-06
1.62417e-06
1.62417e-06
1.62417e-06
1.62417e-06
1.62417e-06
1.62417e-06
1.6267e-06
1.62735e-06
1.62885e-06
1.62716e-06
1.62417e-06
1.62417e-06
1.62417e-06
1.62417e-06
1.62417e-06
1.62417e-06
1.62417e-06
1.62417e-06
1.62417e-06
1.6272e-06
1.62882e-06
1.62711e-06
1.62417e-06
1.62417e-06
1.62417e-06
1.62417e-06
1.62417e-06
1.62417e-06
1.62417e-06
1.62417e-06
1.62417e-06
1.62711e-06
1.62873e-06
1.62712e-06
1.62417e-06
1.62417e-06
1.62417e-06
1.62417e-06
1.62417e-06
1.62417e-06
1.62417e-06
1.62417e-06
1.62417e-06
1.62714e-06
1.62873e-06
1.62858e-06
1.62675e-06
1.62417e-06
1.62417e-06
1.62417e-06
1.62417e-06
1.62417e-06
1.62417e-06
1.62417e-06
1.62669e-06
1.6273e-06
1.62886e-06
1.62878e-06
1.62727e-06
1.62668e-06
1.62417e-06
1.62417e-06
1.62417e-06
1.62417e-06
1.62417e-06
1.62666e-06
1.62711e-06
1.62748e-06
1.62866e-06
1.62725e-06
1.6267e-06
1.62417e-06
1.62417e-06
1.62417e-06
1.62669e-06
1.62711e-06
1.62744e-06
1.6289e-06
1.62867e-06
1.62735e-06
1.6272e-06
1.62711e-06
1.62714e-06
1.6273e-06
1.62748e-06
1.6289e-06
1.62885e-06
1.62882e-06
1.62873e-06
1.62873e-06
1.62886e-06
1.61357e-06
1.61195e-06
1.6119e-06
1.61191e-06
1.61337e-06
1.61357e-06
1.61368e-06
1.61218e-06
1.61153e-06
1.60896e-06
1.60896e-06
1.60896e-06
1.61154e-06
1.61206e-06
1.61345e-06
1.61218e-06
1.61149e-06
1.60896e-06
1.60896e-06
1.60896e-06
1.60896e-06
1.60896e-06
1.61147e-06
1.61204e-06
1.61346e-06
1.61357e-06
1.61153e-06
1.60896e-06
1.60896e-06
1.60896e-06
1.60896e-06
1.60896e-06
1.60896e-06
1.60896e-06
1.61149e-06
1.61214e-06
1.61364e-06
1.61195e-06
1.60896e-06
1.60896e-06
1.60896e-06
1.60896e-06
1.60896e-06
1.60896e-06
1.60896e-06
1.60896e-06
1.60896e-06
1.61199e-06
1.61361e-06
1.6119e-06
1.60896e-06
1.60896e-06
1.60896e-06
1.60896e-06
1.60896e-06
1.60896e-06
1.60896e-06
1.60896e-06
1.60896e-06
1.6119e-06
1.61352e-06
1.61191e-06
1.60896e-06
1.60896e-06
1.60896e-06
1.60896e-06
1.60896e-06
1.60896e-06
1.60896e-06
1.60896e-06
1.60896e-06
1.61193e-06
1.61352e-06
1.61337e-06
1.61154e-06
1.60896e-06
1.60896e-06
1.60896e-06
1.60896e-06
1.60896e-06
1.60896e-06
1.60896e-06
1.61148e-06
1.61209e-06
1.61365e-06
1.61357e-06
1.61206e-06
1.61147e-06
1.60896e-06
1.60896e-06
1.60896e-06
1.60896e-06
1.60896e-06
1.61145e-06
1.6119e-06
1.61227e-06
1.61345e-06
1.61204e-06
1.61149e-06
1.60896e-06
1.60896e-06
1.60896e-06
1.61148e-06
1.6119e-06
1.61223e-06
1.61369e-06
1.61346e-06
1.61214e-06
1.61199e-06
1.6119e-06
1.61193e-06
1.61208e-06
1.61227e-06
1.61369e-06
1.61364e-06
1.61361e-06
1.61352e-06
1.61352e-06
1.61365e-06
1.59836e-06
1.59674e-06
1.59669e-06
1.5967e-06
1.59816e-06
1.59836e-06
1.59847e-06
1.59697e-06
1.59632e-06
1.59375e-06
1.59375e-06
1.59375e-06
1.59633e-06
1.59685e-06
1.59824e-06
1.59697e-06
1.59628e-06
1.59375e-06
1.59375e-06
1.59375e-06
1.59375e-06
1.59375e-06
1.59626e-06
1.59683e-06
1.59825e-06
1.59836e-06
1.59632e-06
1.59375e-06
1.59375e-06
1.59375e-06
1.59375e-06
1.59375e-06
1.59375e-06
1.59375e-06
1.59628e-06
1.59693e-06
1.59843e-06
1.59674e-06
1.59375e-06
1.59375e-06
1.59375e-06
1.59375e-06
1.59375e-06
1.59375e-06
1.59375e-06
1.59375e-06
1.59375e-06
1.59678e-06
1.5984e-06
1.59669e-06
1.59375e-06
1.59375e-06
1.59375e-06
1.59375e-06
1.59375e-06
1.59375e-06
1.59375e-06
1.59375e-06
1.59375e-06
1.59669e-06
1.59831e-06
1.5967e-06
1.59375e-06
1.59375e-06
1.59375e-06
1.59375e-06
1.59375e-06
1.59375e-06
1.59375e-06
1.59375e-06
1.59375e-06
1.59672e-06
1.59831e-06
1.59816e-06
1.59633e-06
1.59375e-06
1.59375e-06
1.59375e-06
1.59375e-06
1.59375e-06
1.59375e-06
1.59375e-06
1.59627e-06
1.59688e-06
1.59844e-06
1.59836e-06
1.59685e-06
1.59626e-06
1.59375e-06
1.59375e-06
1.59375e-06
1.59375e-06
1.59375e-06
1.59624e-06
1.59669e-06
1.59706e-06
1.59824e-06
1.59683e-06
1.59628e-06
1.59375e-06
1.59375e-06
1.59375e-06
1.59627e-06
1.59669e-06
1.59702e-06
1.59848e-06
1.59825e-06
1.59693e-06
1.59678e-06
1.59669e-06
1.59672e-06
1.59687e-06
1.59706e-06
1.59848e-06
1.59843e-06
1.5984e-06
1.59831e-06
1.59831e-06
1.59844e-06
1.58315e-06
1.58153e-06
1.58148e-06
1.58149e-06
1.58295e-06
1.58315e-06
1.58326e-06
1.58176e-06
1.58111e-06
1.57854e-06
1.57854e-06
1.57854e-06
1.58112e-06
1.58164e-06
1.58303e-06
1.58176e-06
1.58107e-06
1.57854e-06
1.57854e-06
1.57854e-06
1.57854e-06
1.57854e-06
1.58105e-06
1.58162e-06
1.58304e-06
1.58315e-06
1.58111e-06
1.57854e-06
1.57854e-06
1.57854e-06
1.57854e-06
1.57854e-06
1.57854e-06
1.57854e-06
1.58107e-06
1.58172e-06
1.58322e-06
1.58153e-06
1.57854e-06
1.57854e-06
1.57854e-06
1.57854e-06
1.57854e-06
1.57854e-06
1.57854e-06
1.57854e-06
1.57854e-06
1.58157e-06
1.58319e-06
1.58148e-06
1.57854e-06
1.57854e-06
1.57854e-06
1.57854e-06
1.57854e-06
1.57854e-06
1.57854e-06
1.57854e-06
1.57854e-06
1.58148e-06
1.5831e-06
1.58149e-06
1.57854e-06
1.57854e-06
1.57854e-06
1.57854e-06
1.57854e-06
1.57854e-06
1.57854e-06
1.57854e-06
1.57854e-06
1.58151e-06
1.5831e-06
1.58295e-06
1.58112e-06
1.57854e-06
1.57854e-06
1.57854e-06
1.57854e-06
1.57854e-06
1.57854e-06
1.57854e-06
1.58106e-06
1.58166e-06
1.58323e-06
1.58315e-06
1.58164e-06
1.58105e-06
1.57854e-06
1.57854e-06
1.57854e-06
1.57854e-06
1.57854e-06
1.58103e-06
1.58148e-06
1.58185e-06
1.58303e-06
1.58162e-06
1.58107e-06
1.57854e-06
1.57854e-06
1.57854e-06
1.58106e-06
1.58148e-06
1.58181e-06
1.58327e-06
1.58304e-06
1.58172e-06
1.58157e-06
1.58148e-06
1.58151e-06
1.58166e-06
1.58185e-06
1.58327e-06
1.58322e-06
1.58319e-06
1.5831e-06
1.5831e-06
1.58323e-06
1.56794e-06
1.56632e-06
1.56627e-06
1.56628e-06
1.56774e-06
1.56794e-06
1.56805e-06
1.56655e-06
1.5659e-06
1.56333e-06
1.56333e-06
1.56333e-06
1.56591e-06
1.56643e-06
1.56782e-06
1.56655e-06
1.56586e-06
1.56333e-06
1.56333e-06
1.56333e-06
1.56333e-06
1.56333e-06
1.56584e-06
1.56641e-06
1.56783e-06
1.56794e-06
1.5659e-06
1.56333e-06
1.56333e-06
1.56333e-06
1.56333e-06
1.56333e-06
1.56333e-06
1.56333e-06
1.56586e-06
1.56651e-06
1.56801e-06
1.56632e-06
1.56333e-06
1.56333e-06
1.56333e-06
1.56333e-06
1.56333e-06
1.56333e-06
1.56333e-06
1.56333e-06
1.56333e-06
1.56636e-06
1.56798e-06
1.56627e-06
1.56333e-06
1.56333e-06
1.56333e-06
1.56333e-06
1.56333e-06
1.56333e-06
1.56333e-06
1.56333e-06
1.56333e-06
1.56627e-06
1.56789e-06
1.56628e-06
1.56333e-06
1.56333e-06
1.56333e-06
1.56333e-06
1.56333e-06
1.56333e-06
1.56333e-06
1.56333e-06
1.56333e-06
1.5663e-06
1.56789e-06
1.56774e-06
1.56591e-06
1.56333e-06
1.56333e-06
1.56333e-06
1.56333e-06
1.56333e-06
1.56333e-06
1.56333e-06
1.56585e-06
1.56645e-06
1.56802e-06
1.56794e-06
1.56643e-06
1.56584e-06
1.56333e-06
1.56333e-06
1.56333e-06
1.56333e-06
1.56333e-06
1.56582e-06
1.56627e-06
1.56664e-06
1.56782e-06
1.56641e-06
1.56586e-06
1.56333e-06
1.56333e-06
1.56333e-06
1.56585e-06
1.56627e-06
1.5666e-06
1.56806e-06
1.56783e-06
1.56651e-06
1.56636e-06
1.56627e-06
1.5663e-06
1.56645e-06
1.56664e-06
1.56806e-06
1.56801e-06
1.56798e-06
1.56789e-06
1.56789e-06
1.56802e-06
1.55273e-06
1.55111e-06
1.55106e-06
1.55107e-06
1.55253e-06
1.55273e-06
1.55284e-06
1.55134e-06
1.55069e-06
1.54812e-06
1.54812e-06
1.54812e-06
1.5507e-06
1.55122e-06
1.55261e-06
1.55134e-06
1.55065e-06
1.54812e-06
1.54812e-06
1.54812e-06
1.54812e-06
1.54812e-06
1.55063e-06
1.5512e-06
1.55262e-06
1.55273e-06
1.55069e-06
1.54812e-06
1.54812e-06
1.54812e-06
1.54812e-06
1.54812e-06
1.54812e-06
1.54812e-06
1.55065e-06
1.5513e-06
1.5528e-06
1.55111e-06
1.54812e-06
1.54812e-06
1.54812e-06
1.54812e-06
1.54812e-06
1.54812e-06
1.54812e-06
1.54812e-06
1.54812e-06
1.55115e-06
1.55277e-06
1.55106e-06
1.54812e-06
1.54812e-06
1.54812e-06
1.54812e-06
1.54812e-06
1.54812e-06
1.54812e-06
1.54812e-06
1.54812e-06
1.55106e-06
1.55268e-06
1.55107e-06
1.54812e-06
1.54812e-06
1.54812e-06
1.54812e-06
1.54812e-06
1.54812e-06
1.54812e-06
1.54812e-06
1.54812e-06
1.55109e-06
1.55268e-06
1.55253e-06
1.5507e-06
1.54812e-06
1.54812e-06
1.54812e-06
1.54812e-06
1.54812e-06
1.54812e-06
1.54812e-06
1.55064e-06
1.55124e-06
1.55281e-06
1.55273e-06
1.55122e-06
1.55063e-06
1.54812e-06
1.54812e-06
1.54812e-06
1.54812e-06
1.54812e-06
1.5506e-06
1.55106e-06
1.55143e-06
1.55261e-06
1.5512e-06
1.55065e-06
1.54812e-06
1.54812e-06
1.54812e-06
1.55064e-06
1.55106e-06
1.55139e-06
1.55285e-06
1.55262e-06
1.5513e-06
1.55115e-06
1.55106e-06
1.55109e-06
1.55124e-06
1.55143e-06
1.55285e-06
1.5528e-06
1.55277e-06
1.55268e-06
1.55268e-06
1.55281e-06
1.53752e-06
1.5359e-06
1.53585e-06
1.53586e-06
1.53732e-06
1.53752e-06
1.53763e-06
1.53613e-06
1.53548e-06
1.53291e-06
1.53291e-06
1.53291e-06
1.53549e-06
1.53601e-06
1.5374e-06
1.53613e-06
1.53544e-06
1.53291e-06
1.53291e-06
1.53291e-06
1.53291e-06
1.53291e-06
1.53542e-06
1.53599e-06
1.53741e-06
1.53752e-06
1.53548e-06
1.53291e-06
1.53291e-06
1.53291e-06
1.53291e-06
1.53291e-06
1.53291e-06
1.53291e-06
1.53544e-06
1.53609e-06
1.53759e-06
1.5359e-06
1.53291e-06
1.53291e-06
1.53291e-06
1.53291e-06
1.53291e-06
1.53291e-06
1.53291e-06
1.53291e-06
1.53291e-06
1.53594e-06
1.53756e-06
1.53585e-06
1.53291e-06
1.53291e-06
1.53291e-06
1.53291e-06
1.53291e-06
1.53291e-06
1.53291e-06
1.53291e-06
1.53291e-06
1.53585e-06
1.53747e-06
1.53586e-06
1.53291e-06
1.53291e-06
1.53291e-06
1.53291e-06
1.53291e-06
1.53291e-06
1.53291e-06
1.53291e-06
1.53291e-06
1.53588e-06
1.53747e-06
1.53732e-06
1.53549e-06
1.53291e-06
1.53291e-06
1.53291e-06
1.53291e-06
1.53291e-06
1.53291e-06
1.53291e-06
1.53543e-06
1.53603e-06
1.5376e-06
1.53752e-06
1.53601e-06
1.53542e-06
1.53291e-06
1.53291e-06
1.53291e-06
1.53291e-06
1.53291e-06
1.53539e-06
1.53585e-06
1.53622e-06
1.5374e-06
1.53599e-06
1.53544e-06
1.53291e-06
1.53291e-06
1.53291e-06
1.53543e-06
1.53585e-06
1.53618e-06
1.53764e-06
1.53741e-06
1.53609e-06
1.53594e-06
1.53585e-06
1.53588e-06
1.53603e-06
1.53622e-06
1.53764e-06
1.53759e-06
1.53756e-06
1.53747e-06
1.53747e-06
1.5376e-06
1.52231e-06
1.52069e-06
1.52064e-06
1.52065e-06
1.52211e-06
1.52231e-06
1.52241e-06
1.52092e-06
1.52027e-06
1.5177e-06
1.5177e-06
1.5177e-06
1.52028e-06
1.5208e-06
1.52219e-06
1.52092e-06
1.52023e-06
1.5177e-06
1.5177e-06
1.5177e-06
1.5177e-06
1.5177e-06
1.52021e-06
1.52078e-06
1.5222e-06
1.52231e-06
1.52027e-06
1.5177e-06
1.5177e-06
1.5177e-06
1.5177e-06
1.5177e-06
1.5177e-06
1.5177e-06
1.52023e-06
1.52088e-06
1.52238e-06
1.52069e-06
1.5177e-06
1.5177e-06
1.5177e-06
1.5177e-06
1.5177e-06
1.5177e-06
1.5177e-06
1.5177e-06
1.5177e-06
1.52073e-06
1.52235e-06
1.52064e-06
1.5177e-06
1.5177e-06
1.5177e-06
1.5177e-06
1.5177e-06
1.5177e-06
1.5177e-06
1.5177e-06
1.5177e-06
1.52064e-06
1.52226e-06
1.52065e-06
1.5177e-06
1.5177e-06
1.5177e-06
1.5177e-06
1.5177e-06
1.5177e-06
1.5177e-06
1.5177e-06
1.5177e-06
1.52067e-06
1.52226e-06
1.52211e-06
1.52028e-06
1.5177e-06
1.5177e-06
1.5177e-06
1.5177e-06
1.5177e-06
1.5177e-06
1.5177e-06
1.52022e-06
1.52082e-06
1.52239e-06
1.52231e-06
1.5208e-06
1.52021e-06
1.5177e-06
1.5177e-06
1.5177e-06
1.5177e-06
1.5177e-06
1.52018e-06
1.52064e-06
1.52101e-06
1.52219e-06
1.52078e-06
1.52023e-06
1.5177e-06
1.5177e-06
1.5177e-06
1.52022e-06
1.52064e-06
1.52097e-06
1.52243e-06
1.5222e-06
1.52088e-06
1.52073e-06
1.52064e-06
1.52067e-06
1.52082e-06
1.52101e-06
1.52243e-06
1.52238e-06
1.52235e-06
1.52226e-06
1.52226e-06
1.52239e-06
1.5071e-06
1.50548e-06
1.50543e-06
1.50544e-06
1.5069e-06
1.5071e-06
1.5072e-06
1.50571e-06
1.50506e-06
1.50249e-06
1.50249e-06
1.50249e-06
1.50507e-06
1.50559e-06
1.50698e-06
1.50571e-06
1.50502e-06
1.50249e-06
1.50249e-06
1.50249e-06
1.50249e-06
1.50249e-06
1.505e-06
1.50557e-06
1.50699e-06
1.5071e-06
1.50506e-06
1.50249e-06
1.50249e-06
1.50249e-06
1.50249e-06
1.50249e-06
1.50249e-06
1.50249e-06
1.50502e-06
1.50567e-06
1.50717e-06
1.50548e-06
1.50249e-06
1.50249e-06
1.50249e-06
1.50249e-06
1.50249e-06
1.50249e-06
1.50249e-06
1.50249e-06
1.50249e-06
1.50552e-06
1.50714e-06
1.50543e-06
1.50249e-06
1.50249e-06
1.50249e-06
1.50249e-06
1.50249e-06
1.50249e-06
1.50249e-06
1.50249e-06
1.50249e-06
1.50543e-06
1.50705e-06
1.50544e-06
1.50249e-06
1.50249e-06
1.50249e-06
1.50249e-06
1.50249e-06
1.50249e-06
1.50249e-06