/*--------------------------------*- C++ -*----------------------------------*\
| =========                 |                                                 |
| \\      /  F ield         | OpenFOAM: The Open Source CFD Toolbox           |
|  \\    /   O peration     | Version:  v2012                                 |
|   \\  /    A nd           | Website:  www.openfoam.com                      |
|    \\/     M anipulation  |                                                 |
\*---------------------------------------------------------------------------*/
FoamFile
{
    version     2.0;
    format      ascii;
    class       volScalarField;
    location    "87";
    object      p;
}
// * * * * * * * * * * * * * * * * * * * * * * * * * * * * * * * * * * * * * //

dimensions      [0 2 -2 0 0 0 0];


internalField   nonuniform List<scalar> 
292667
(
9.81688e-07
9.72967e-07
9.72349e-07
9.72402e-07
9.7322e-07
9.82505e-07
9.73168e-07
9.71077e-07
9.69836e-07
9.69323e-07
9.69388e-07
9.70052e-07
9.71472e-07
9.73733e-07
9.73168e-07
9.70473e-07
9.68763e-07
9.67814e-07
9.67413e-07
9.67466e-07
9.67983e-07
9.69082e-07
9.70997e-07
9.73867e-07
9.81689e-07
9.71077e-07
9.68763e-07
9.67372e-07
9.66592e-07
9.66258e-07
9.66303e-07
9.66735e-07
9.6764e-07
9.69215e-07
9.71791e-07
9.81071e-07
9.72967e-07
9.69836e-07
9.67814e-07
9.66592e-07
9.65899e-07
9.65599e-07
9.6564e-07
9.66029e-07
9.66835e-07
9.68221e-07
9.70501e-07
9.76156e-07
9.72349e-07
9.69323e-07
9.67413e-07
9.66258e-07
9.65599e-07
9.65312e-07
9.65352e-07
9.65724e-07
9.66491e-07
9.67804e-07
9.69968e-07
9.74696e-07
9.72402e-07
9.69388e-07
9.67466e-07
9.66303e-07
9.6564e-07
9.65352e-07
9.65392e-07
9.65767e-07
9.66539e-07
9.67863e-07
9.70045e-07
9.74984e-07
9.7322e-07
9.70052e-07
9.67983e-07
9.66735e-07
9.66029e-07
9.65724e-07
9.65767e-07
9.66164e-07
9.66988e-07
9.6841e-07
9.70752e-07
9.76432e-07
9.82505e-07
9.71472e-07
9.69082e-07
9.6764e-07
9.66835e-07
9.66491e-07
9.66539e-07
9.66988e-07
9.67931e-07
9.69577e-07
9.72241e-07
9.80896e-07
9.73733e-07
9.70997e-07
9.69215e-07
9.68221e-07
9.67804e-07
9.67862e-07
9.6841e-07
9.69577e-07
9.71595e-07
9.77094e-07
9.73867e-07
9.7179e-07
9.70501e-07
9.69968e-07
9.70045e-07
9.70752e-07
9.72241e-07
9.77094e-07
9.8107e-07
9.76156e-07
9.74696e-07
9.74984e-07
9.76431e-07
9.80896e-07
9.59093e-07
9.58557e-07
9.58518e-07
9.58579e-07
9.59149e-07
9.58997e-07
9.59106e-07
9.58691e-07
9.58389e-07
9.5738e-07
9.57363e-07
9.5738e-07
9.58549e-07
9.5876e-07
9.59175e-07
9.58691e-07
9.58363e-07
9.5741e-07
9.57373e-07
9.57406e-07
9.57373e-07
9.5741e-07
9.58535e-07
9.58752e-07
9.59166e-07
9.59093e-07
9.58389e-07
9.57411e-07
9.57354e-07
9.57372e-07
9.5735e-07
9.57372e-07
9.57354e-07
9.57411e-07
9.58542e-07
9.58792e-07
9.59172e-07
9.58557e-07
9.5738e-07
9.57373e-07
9.57372e-07
9.5733e-07
9.57335e-07
9.5733e-07
9.57372e-07
9.57373e-07
9.57381e-07
9.58959e-07
9.5936e-07
9.58518e-07
9.57364e-07
9.57406e-07
9.5735e-07
9.57335e-07
9.57322e-07
9.57335e-07
9.57349e-07
9.57406e-07
9.57363e-07
9.58979e-07
9.59311e-07
9.58579e-07
9.5738e-07
9.57373e-07
9.57372e-07
9.5733e-07
9.57335e-07
9.5733e-07
9.57371e-07
9.57373e-07
9.5738e-07
9.58971e-07
9.5933e-07
9.59149e-07
9.58549e-07
9.5741e-07
9.57354e-07
9.57372e-07
9.57349e-07
9.57372e-07
9.57353e-07
9.5741e-07
9.5875e-07
9.58861e-07
9.59317e-07
9.58997e-07
9.5876e-07
9.58535e-07
9.57411e-07
9.57373e-07
9.57406e-07
9.57373e-07
9.5741e-07
9.58718e-07
9.58828e-07
9.58814e-07
9.59175e-07
9.58752e-07
9.58542e-07
9.57381e-07
9.57363e-07
9.5738e-07
9.5875e-07
9.58828e-07
9.58844e-07
9.59261e-07
9.59166e-07
9.58792e-07
9.58959e-07
9.58979e-07
9.58971e-07
9.58861e-07
9.58815e-07
9.59261e-07
9.59172e-07
9.5936e-07
9.59311e-07
9.5933e-07
9.59317e-07
9.50926e-07
9.5031e-07
9.50259e-07
9.50304e-07
9.50957e-07
9.50957e-07
9.5093e-07
9.50398e-07
9.50042e-07
9.49083e-07
9.49082e-07
9.49083e-07
9.50199e-07
9.5044e-07
9.50958e-07
9.50398e-07
9.50016e-07
9.49118e-07
9.49126e-07
9.49154e-07
9.49126e-07
9.49118e-07
9.50195e-07
9.50439e-07
9.50959e-07
9.50927e-07
9.50042e-07
9.49118e-07
9.49138e-07
9.49176e-07
9.49171e-07
9.49176e-07
9.49138e-07
9.49118e-07
9.50209e-07
9.50508e-07
9.50966e-07
9.5031e-07
9.49083e-07
9.49126e-07
9.49176e-07
9.49181e-07
9.492e-07
9.49181e-07
9.49176e-07
9.49126e-07
9.49083e-07
9.50593e-07
9.51128e-07
9.50259e-07
9.49082e-07
9.49154e-07
9.49171e-07
9.492e-07
9.492e-07
9.492e-07
9.49171e-07
9.49154e-07
9.49081e-07
9.50602e-07
9.51156e-07
9.50304e-07
9.49083e-07
9.49126e-07
9.49176e-07
9.49181e-07
9.492e-07
9.49181e-07
9.49176e-07
9.49126e-07
9.49083e-07
9.50598e-07
9.51155e-07
9.50957e-07
9.502e-07
9.49118e-07
9.49138e-07
9.49176e-07
9.49171e-07
9.49176e-07
9.49138e-07
9.49118e-07
9.50427e-07
9.50566e-07
9.51111e-07
9.50957e-07
9.5044e-07
9.50195e-07
9.49118e-07
9.49126e-07
9.49154e-07
9.49126e-07
9.49118e-07
9.50406e-07
9.50507e-07
9.50581e-07
9.50958e-07
9.50439e-07
9.50209e-07
9.49083e-07
9.49081e-07
9.49083e-07
9.50427e-07
9.50507e-07
9.50564e-07
9.51085e-07
9.50959e-07
9.50508e-07
9.50593e-07
9.50602e-07
9.50598e-07
9.50567e-07
9.50581e-07
9.51085e-07
9.50966e-07
9.51128e-07
9.51156e-07
9.51155e-07
9.51111e-07
9.4279e-07
9.42164e-07
9.42109e-07
9.42155e-07
9.42819e-07
9.42823e-07
9.42795e-07
9.42249e-07
9.41875e-07
9.40899e-07
9.40901e-07
9.40899e-07
9.42026e-07
9.4228e-07
9.42822e-07
9.42249e-07
9.41842e-07
9.40919e-07
9.40933e-07
9.40946e-07
9.40933e-07
9.40919e-07
9.42012e-07
9.42279e-07
9.42824e-07
9.4279e-07
9.41875e-07
9.40919e-07
9.40942e-07
9.40968e-07
9.40969e-07
9.40968e-07
9.40942e-07
9.40918e-07
9.42032e-07
9.4236e-07
9.42831e-07
9.42164e-07
9.40899e-07
9.40933e-07
9.40969e-07
9.40982e-07
9.40996e-07
9.40982e-07
9.40969e-07
9.40933e-07
9.40899e-07
9.42437e-07
9.42993e-07
9.42109e-07
9.40901e-07
9.40946e-07
9.40969e-07
9.40996e-07
9.40998e-07
9.40996e-07
9.40969e-07
9.40946e-07
9.40901e-07
9.42438e-07
9.43017e-07
9.42155e-07
9.40899e-07
9.40933e-07
9.40968e-07
9.40982e-07
9.40996e-07
9.40982e-07
9.40968e-07
9.40933e-07
9.40899e-07
9.42436e-07
9.43017e-07
9.42819e-07
9.42026e-07
9.40918e-07
9.40942e-07
9.40969e-07
9.40969e-07
9.40969e-07
9.40942e-07
9.40918e-07
9.42252e-07
9.42416e-07
9.42975e-07
9.42823e-07
9.4228e-07
9.42012e-07
9.40919e-07
9.40933e-07
9.40946e-07
9.40933e-07
9.40919e-07
9.42226e-07
9.42343e-07
9.42442e-07
9.42822e-07
9.42279e-07
9.42032e-07
9.40899e-07
9.40901e-07
9.40899e-07
9.42252e-07
9.42343e-07
9.4242e-07
9.42952e-07
9.42824e-07
9.4236e-07
9.42437e-07
9.42438e-07
9.42436e-07
9.42416e-07
9.42442e-07
9.42952e-07
9.42831e-07
9.42993e-07
9.43017e-07
9.43017e-07
9.42975e-07
9.34654e-07
9.34025e-07
9.33968e-07
9.34014e-07
9.34683e-07
9.34687e-07
9.3466e-07
9.34109e-07
9.33728e-07
9.32744e-07
9.32745e-07
9.32744e-07
9.33879e-07
9.34138e-07
9.34686e-07
9.34109e-07
9.33692e-07
9.32754e-07
9.32764e-07
9.3277e-07
9.32764e-07
9.32754e-07
9.33859e-07
9.34135e-07
9.34689e-07
9.34654e-07
9.33728e-07
9.32754e-07
9.32769e-07
9.32785e-07
9.32787e-07
9.32785e-07
9.32769e-07
9.32754e-07
9.33883e-07
9.34221e-07
9.34695e-07
9.34025e-07
9.32744e-07
9.32764e-07
9.32785e-07
9.32797e-07
9.32805e-07
9.32797e-07
9.32785e-07
9.32764e-07
9.32743e-07
9.34296e-07
9.34857e-07
9.33968e-07
9.32745e-07
9.3277e-07
9.32787e-07
9.32805e-07
9.32807e-07
9.32805e-07
9.32787e-07
9.3277e-07
9.32745e-07
9.34294e-07
9.34881e-07
9.34014e-07
9.32744e-07
9.32764e-07
9.32785e-07
9.32797e-07
9.32805e-07
9.32797e-07
9.32785e-07
9.32764e-07
9.32743e-07
9.34293e-07
9.3488e-07
9.34683e-07
9.33879e-07
9.32753e-07
9.32769e-07
9.32785e-07
9.32787e-07
9.32785e-07
9.32769e-07
9.32753e-07
9.34102e-07
9.34276e-07
9.34839e-07
9.34687e-07
9.34138e-07
9.33859e-07
9.32753e-07
9.32764e-07
9.3277e-07
9.32764e-07
9.32753e-07
9.34073e-07
9.34199e-07
9.34306e-07
9.34686e-07
9.34135e-07
9.33883e-07
9.32744e-07
9.32745e-07
9.32744e-07
9.34103e-07
9.34199e-07
9.34282e-07
9.34818e-07
9.34689e-07
9.34221e-07
9.34296e-07
9.34294e-07
9.34293e-07
9.34276e-07
9.34306e-07
9.34818e-07
9.34695e-07
9.34857e-07
9.34881e-07
9.3488e-07
9.34839e-07
9.26516e-07
9.25885e-07
9.25828e-07
9.25875e-07
9.26545e-07
9.26549e-07
9.26522e-07
9.2597e-07
9.25586e-07
9.24597e-07
9.24599e-07
9.24597e-07
9.25737e-07
9.25998e-07
9.26549e-07
9.2597e-07
9.25548e-07
9.24602e-07
9.24609e-07
9.24612e-07
9.24609e-07
9.24602e-07
9.25715e-07
9.25995e-07
9.26552e-07
9.26516e-07
9.25586e-07
9.24602e-07
9.24612e-07
9.2462e-07
9.24622e-07
9.2462e-07
9.24612e-07
9.24602e-07
9.2574e-07
9.26082e-07
9.26557e-07
9.25885e-07
9.24597e-07
9.2461e-07
9.24621e-07
9.24629e-07
9.24633e-07
9.24629e-07
9.24621e-07
9.24609e-07
9.24597e-07
9.26156e-07
9.26719e-07
9.25828e-07
9.24599e-07
9.24612e-07
9.24622e-07
9.24633e-07
9.24635e-07
9.24633e-07
9.24622e-07
9.24612e-07
9.24599e-07
9.26153e-07
9.26743e-07
9.25875e-07
9.24597e-07
9.24609e-07
9.2462e-07
9.24629e-07
9.24633e-07
9.24629e-07
9.2462e-07
9.24609e-07
9.24597e-07
9.26152e-07
9.26742e-07
9.26545e-07
9.25737e-07
9.24602e-07
9.24612e-07
9.24621e-07
9.24622e-07
9.24621e-07
9.24612e-07
9.24602e-07
9.2596e-07
9.26137e-07
9.26701e-07
9.26549e-07
9.25998e-07
9.25715e-07
9.24602e-07
9.24609e-07
9.24612e-07
9.24609e-07
9.24602e-07
9.25928e-07
9.26058e-07
9.26168e-07
9.26549e-07
9.25995e-07
9.2574e-07
9.24597e-07
9.24599e-07
9.24597e-07
9.2596e-07
9.26058e-07
9.26144e-07
9.2668e-07
9.26552e-07
9.26082e-07
9.26156e-07
9.26153e-07
9.26152e-07
9.26137e-07
9.26168e-07
9.26681e-07
9.26557e-07
9.26719e-07
9.26743e-07
9.26742e-07
9.26701e-07
9.18377e-07
9.17746e-07
9.17689e-07
9.17735e-07
9.18406e-07
9.18411e-07
9.18384e-07
9.1783e-07
9.17445e-07
9.16454e-07
9.16456e-07
9.16454e-07
9.17596e-07
9.17858e-07
9.18411e-07
9.1783e-07
9.17407e-07
9.16457e-07
9.16462e-07
9.16463e-07
9.16462e-07
9.16457e-07
9.17574e-07
9.17855e-07
9.18413e-07
9.18377e-07
9.17445e-07
9.16457e-07
9.16463e-07
9.16467e-07
9.16469e-07
9.16467e-07
9.16463e-07
9.16457e-07
9.17599e-07
9.17943e-07
9.18418e-07
9.17745e-07
9.16454e-07
9.16462e-07
9.16467e-07
9.16473e-07
9.16475e-07
9.16473e-07
9.16467e-07
9.16462e-07
9.16454e-07
9.18016e-07
9.1858e-07
9.17688e-07
9.16456e-07
9.16463e-07
9.16469e-07
9.16474e-07
9.16476e-07
9.16474e-07
9.16469e-07
9.16463e-07
9.16456e-07
9.18013e-07
9.18604e-07
9.17735e-07
9.16454e-07
9.16462e-07
9.16467e-07
9.16473e-07
9.16475e-07
9.16473e-07
9.16467e-07
9.16462e-07
9.16454e-07
9.18012e-07
9.18603e-07
9.18406e-07
9.17596e-07
9.16457e-07
9.16463e-07
9.16467e-07
9.16469e-07
9.16467e-07
9.16463e-07
9.16457e-07
9.17819e-07
9.17998e-07
9.18562e-07
9.18411e-07
9.17858e-07
9.17574e-07
9.16457e-07
9.16462e-07
9.16463e-07
9.16462e-07
9.16457e-07
9.17786e-07
9.17919e-07
9.18029e-07
9.18411e-07
9.17855e-07
9.17599e-07
9.16454e-07
9.16456e-07
9.16455e-07
9.17819e-07
9.17919e-07
9.18005e-07
9.18542e-07
9.18413e-07
9.17943e-07
9.18016e-07
9.18013e-07
9.18012e-07
9.17998e-07
9.18029e-07
9.18542e-07
9.18418e-07
9.1858e-07
9.18604e-07
9.18603e-07
9.18562e-07
9.10238e-07
9.09606e-07
9.09549e-07
9.09595e-07
9.10266e-07
9.10272e-07
9.10244e-07
9.09691e-07
9.09305e-07
9.08313e-07
9.08314e-07
9.08313e-07
9.09456e-07
9.09718e-07
9.10271e-07
9.09691e-07
9.09266e-07
9.08315e-07
9.08318e-07
9.08318e-07
9.08318e-07
9.08315e-07
9.09433e-07
9.09716e-07
9.10274e-07
9.10238e-07
9.09305e-07
9.08315e-07
9.08318e-07
9.0832e-07
9.08322e-07
9.0832e-07
9.08318e-07
9.08315e-07
9.09459e-07
9.09803e-07
9.10279e-07
9.09606e-07
9.08313e-07
9.08318e-07
9.0832e-07
9.08324e-07
9.08325e-07
9.08324e-07
9.0832e-07
9.08318e-07
9.08313e-07
9.09877e-07
9.10441e-07
9.09549e-07
9.08314e-07
9.08318e-07
9.08322e-07
9.08325e-07
9.08326e-07
9.08325e-07
9.08322e-07
9.08318e-07
9.08314e-07
9.09873e-07
9.10464e-07
9.09595e-07
9.08313e-07
9.08318e-07
9.0832e-07
9.08324e-07
9.08325e-07
9.08324e-07
9.0832e-07
9.08318e-07
9.08313e-07
9.09873e-07
9.10464e-07
9.10266e-07
9.09456e-07
9.08315e-07
9.08318e-07
9.0832e-07
9.08322e-07
9.0832e-07
9.08319e-07
9.08315e-07
9.09679e-07
9.09859e-07
9.10423e-07
9.10272e-07
9.09718e-07
9.09433e-07
9.08315e-07
9.08318e-07
9.08318e-07
9.08318e-07
9.08315e-07
9.09646e-07
9.09779e-07
9.0989e-07
9.10271e-07
9.09716e-07
9.09459e-07
9.08313e-07
9.08314e-07
9.08313e-07
9.09679e-07
9.09779e-07
9.09866e-07
9.10403e-07
9.10274e-07
9.09803e-07
9.09877e-07
9.09873e-07
9.09873e-07
9.09859e-07
9.0989e-07
9.10403e-07
9.10279e-07
9.10441e-07
9.10464e-07
9.10464e-07
9.10423e-07
9.02098e-07
9.01466e-07
9.01409e-07
9.01456e-07
9.02127e-07
9.02132e-07
9.02105e-07
9.01551e-07
9.01165e-07
9.00173e-07
9.00174e-07
9.00173e-07
9.01316e-07
9.01579e-07
9.02132e-07
9.01551e-07
9.01126e-07
9.00174e-07
9.00176e-07
9.00176e-07
9.00176e-07
9.00174e-07
9.01293e-07
9.01576e-07
9.02135e-07
9.02098e-07
9.01165e-07
9.00174e-07
9.00176e-07
9.00177e-07
9.00178e-07
9.00177e-07
9.00176e-07
9.00174e-07
9.01319e-07
9.01664e-07
9.0214e-07
9.01466e-07
9.00173e-07
9.00176e-07
9.00177e-07
9.00179e-07
9.00179e-07
9.00179e-07
9.00177e-07
9.00176e-07
9.00173e-07
9.01737e-07
9.02302e-07
9.01409e-07
9.00174e-07
9.00176e-07
9.00178e-07
9.00179e-07
9.0018e-07
9.00179e-07
9.00178e-07
9.00176e-07
9.00174e-07
9.01734e-07
9.02325e-07
9.01456e-07
9.00173e-07
9.00176e-07
9.00177e-07
9.00179e-07
9.00179e-07
9.00179e-07
9.00177e-07
9.00176e-07
9.00173e-07
9.01733e-07
9.02324e-07
9.02127e-07
9.01316e-07
9.00174e-07
9.00176e-07
9.00177e-07
9.00178e-07
9.00177e-07
9.00176e-07
9.00174e-07
9.01539e-07
9.01719e-07
9.02283e-07
9.02132e-07
9.01579e-07
9.01293e-07
9.00174e-07
9.00176e-07
9.00176e-07
9.00176e-07
9.00174e-07
9.01506e-07
9.01639e-07
9.01751e-07
9.02132e-07
9.01576e-07
9.01319e-07
9.00173e-07
9.00174e-07
9.00173e-07
9.01539e-07
9.01639e-07
9.01727e-07
9.02264e-07
9.02135e-07
9.01664e-07
9.01737e-07
9.01734e-07
9.01733e-07
9.01719e-07
9.01751e-07
9.02263e-07
9.0214e-07
9.02302e-07
9.02325e-07
9.02324e-07
9.02283e-07
8.93959e-07
8.93326e-07
8.93269e-07
8.93316e-07
8.93987e-07
8.93992e-07
8.93965e-07
8.93411e-07
8.93025e-07
8.92033e-07
8.92033e-07
8.92033e-07
8.93176e-07
8.93439e-07
8.93992e-07
8.93411e-07
8.92986e-07
8.92033e-07
8.92035e-07
8.92034e-07
8.92035e-07
8.92033e-07
8.93153e-07
8.93436e-07
8.93995e-07
8.93959e-07
8.93025e-07
8.92033e-07
8.92035e-07
8.92035e-07
8.92036e-07
8.92035e-07
8.92035e-07
8.92033e-07
8.93179e-07
8.93524e-07
8.94e-07
8.93326e-07
8.92033e-07
8.92035e-07
8.92035e-07
8.92037e-07
8.92036e-07
8.92037e-07
8.92035e-07
8.92035e-07
8.92033e-07
8.93597e-07
8.94162e-07
8.93269e-07
8.92033e-07
8.92035e-07
8.92036e-07
8.92036e-07
8.92037e-07
8.92036e-07
8.92036e-07
8.92035e-07
8.92033e-07
8.93594e-07
8.94185e-07
8.93316e-07
8.92033e-07
8.92035e-07
8.92035e-07
8.92037e-07
8.92036e-07
8.92037e-07
8.92035e-07
8.92035e-07
8.92033e-07
8.93593e-07
8.94184e-07
8.93987e-07
8.93176e-07
8.92033e-07
8.92035e-07
8.92035e-07
8.92036e-07
8.92035e-07
8.92035e-07
8.92033e-07
8.93399e-07
8.93579e-07
8.94144e-07
8.93992e-07
8.93439e-07
8.93153e-07
8.92033e-07
8.92035e-07
8.92035e-07
8.92035e-07
8.92033e-07
8.93366e-07
8.93499e-07
8.93611e-07
8.93992e-07
8.93436e-07
8.93179e-07
8.92033e-07
8.92033e-07
8.92033e-07
8.93398e-07
8.93499e-07
8.93587e-07
8.94124e-07
8.93995e-07
8.93524e-07
8.93597e-07
8.93594e-07
8.93593e-07
8.93579e-07
8.93611e-07
8.94124e-07
8.94e-07
8.94162e-07
8.94185e-07
8.94184e-07
8.94144e-07
8.85819e-07
8.85187e-07
8.85129e-07
8.85176e-07
8.85847e-07
8.85853e-07
8.85826e-07
8.85272e-07
8.84885e-07
8.83892e-07
8.83893e-07
8.83892e-07
8.85036e-07
8.85299e-07
8.85853e-07
8.85272e-07
8.84846e-07
8.83893e-07
8.83895e-07
8.83894e-07
8.83895e-07
8.83893e-07
8.85013e-07
8.85296e-07
8.85855e-07
8.85819e-07
8.84885e-07
8.83893e-07
8.83894e-07
8.83894e-07
8.83895e-07
8.83894e-07
8.83894e-07
8.83893e-07
8.85039e-07
8.85384e-07
8.8586e-07
8.85187e-07
8.83892e-07
8.83895e-07
8.83894e-07
8.83896e-07
8.83895e-07
8.83896e-07
8.83894e-07
8.83895e-07
8.83892e-07
8.85457e-07
8.86022e-07
8.85129e-07
8.83893e-07
8.83894e-07
8.83895e-07
8.83895e-07
8.83895e-07
8.83895e-07
8.83895e-07
8.83894e-07
8.83893e-07
8.85454e-07
8.86045e-07
8.85176e-07
8.83892e-07
8.83895e-07
8.83894e-07
8.83896e-07
8.83895e-07
8.83896e-07
8.83894e-07
8.83895e-07
8.83892e-07
8.85453e-07
8.86044e-07
8.85847e-07
8.85036e-07
8.83893e-07
8.83894e-07
8.83894e-07
8.83895e-07
8.83894e-07
8.83894e-07
8.83893e-07
8.85259e-07
8.85439e-07
8.86004e-07
8.85853e-07
8.85299e-07
8.85013e-07
8.83893e-07
8.83895e-07
8.83894e-07
8.83895e-07
8.83893e-07
8.85226e-07
8.8536e-07
8.85471e-07
8.85853e-07
8.85296e-07
8.85039e-07
8.83892e-07
8.83893e-07
8.83892e-07
8.85259e-07
8.8536e-07
8.85447e-07
8.85984e-07
8.85855e-07
8.85384e-07
8.85457e-07
8.85454e-07
8.85453e-07
8.85439e-07
8.85471e-07
8.85984e-07
8.8586e-07
8.86022e-07
8.86045e-07
8.86044e-07
8.86004e-07
8.77679e-07
8.77047e-07
8.76989e-07
8.77036e-07
8.77708e-07
8.77713e-07
8.77686e-07
8.77132e-07
8.76745e-07
8.75753e-07
8.75753e-07
8.75753e-07
8.76897e-07
8.7716e-07
8.77713e-07
8.77132e-07
8.76706e-07
8.75753e-07
8.75755e-07
8.75754e-07
8.75755e-07
8.75753e-07
8.76874e-07
8.77157e-07
8.77716e-07
8.77679e-07
8.76745e-07
8.75753e-07
8.75754e-07
8.75754e-07
8.75754e-07
8.75754e-07
8.75754e-07
8.75753e-07
8.76899e-07
8.77245e-07
8.7772e-07
8.77047e-07
8.75753e-07
8.75755e-07
8.75754e-07
8.75756e-07
8.75754e-07
8.75756e-07
8.75753e-07
8.75755e-07
8.75752e-07
8.77318e-07
8.77882e-07
8.76989e-07
8.75753e-07
8.75754e-07
8.75754e-07
8.75754e-07
8.75755e-07
8.75754e-07
8.75754e-07
8.75754e-07
8.75753e-07
8.77314e-07
8.77905e-07
8.77036e-07
8.75753e-07
8.75755e-07
8.75754e-07
8.75756e-07
8.75754e-07
8.75755e-07
8.75753e-07
8.75755e-07
8.75752e-07
8.77313e-07
8.77905e-07
8.77708e-07
8.76897e-07
8.75753e-07
8.75754e-07
8.75754e-07
8.75754e-07
8.75754e-07
8.75754e-07
8.75753e-07
8.77119e-07
8.773e-07
8.77864e-07
8.77713e-07
8.7716e-07
8.76874e-07
8.75753e-07
8.75755e-07
8.75754e-07
8.75755e-07
8.75753e-07
8.77086e-07
8.7722e-07
8.77331e-07
8.77713e-07
8.77157e-07
8.76899e-07
8.75753e-07
8.75753e-07
8.75753e-07
8.77119e-07
8.7722e-07
8.77307e-07
8.77844e-07
8.77716e-07
8.77245e-07
8.77318e-07
8.77314e-07
8.77313e-07
8.773e-07
8.77331e-07
8.77844e-07
8.7772e-07
8.77882e-07
8.77905e-07
8.77905e-07
8.77864e-07
8.69539e-07
8.68907e-07
8.6885e-07
8.68897e-07
8.69568e-07
8.69573e-07
8.69546e-07
8.68992e-07
8.68605e-07
8.67613e-07
8.67613e-07
8.67613e-07
8.68757e-07
8.6902e-07
8.69573e-07
8.68992e-07
8.68566e-07
8.67613e-07
8.67615e-07
8.67614e-07
8.67615e-07
8.67613e-07
8.68734e-07
8.69017e-07
8.69576e-07
8.69539e-07
8.68605e-07
8.67613e-07
8.67614e-07
8.67613e-07
8.67614e-07
8.67613e-07
8.67614e-07
8.67613e-07
8.6876e-07
8.69105e-07
8.69581e-07
8.68907e-07
8.67613e-07
8.67615e-07
8.67613e-07
8.67615e-07
8.67614e-07
8.67615e-07
8.67613e-07
8.67615e-07
8.67613e-07
8.69178e-07
8.69743e-07
8.6885e-07
8.67613e-07
8.67614e-07
8.67614e-07
8.67614e-07
8.67615e-07
8.67614e-07
8.67614e-07
8.67614e-07
8.67613e-07
8.69174e-07
8.69766e-07
8.68897e-07
8.67613e-07
8.67615e-07
8.67613e-07
8.67615e-07
8.67614e-07
8.67615e-07
8.67613e-07
8.67615e-07
8.67613e-07
8.69173e-07
8.69765e-07
8.69568e-07
8.68757e-07
8.67613e-07
8.67614e-07
8.67613e-07
8.67614e-07
8.67613e-07
8.67614e-07
8.67613e-07
8.68979e-07
8.6916e-07
8.69724e-07
8.69573e-07
8.6902e-07
8.68734e-07
8.67613e-07
8.67615e-07
8.67614e-07
8.67615e-07
8.67613e-07
8.68946e-07
8.6908e-07
8.69192e-07
8.69573e-07
8.69017e-07
8.6876e-07
8.67613e-07
8.67614e-07
8.67613e-07
8.68979e-07
8.6908e-07
8.69168e-07
8.69705e-07
8.69576e-07
8.69105e-07
8.69178e-07
8.69174e-07
8.69173e-07
8.6916e-07
8.69192e-07
8.69704e-07
8.69581e-07
8.69743e-07
8.69766e-07
8.69765e-07
8.69724e-07
8.614e-07
8.60767e-07
8.6071e-07
8.60757e-07
8.61428e-07
8.61433e-07
8.61406e-07
8.60852e-07
8.60465e-07
8.59473e-07
8.59474e-07
8.59473e-07
8.60617e-07
8.6088e-07
8.61433e-07
8.60852e-07
8.60427e-07
8.59473e-07
8.59475e-07
8.59474e-07
8.59475e-07
8.59473e-07
8.60594e-07
8.60877e-07
8.61436e-07
8.61399e-07
8.60465e-07
8.59473e-07
8.59474e-07
8.59473e-07
8.59474e-07
8.59474e-07
8.59474e-07
8.59473e-07
8.6062e-07
8.60965e-07
8.61441e-07
8.60767e-07
8.59473e-07
8.59475e-07
8.59474e-07
8.59475e-07
8.59474e-07
8.59475e-07
8.59474e-07
8.59475e-07
8.59473e-07
8.61038e-07
8.61603e-07
8.6071e-07
8.59474e-07
8.59474e-07
8.59474e-07
8.59474e-07
8.59474e-07
8.59474e-07
8.59474e-07
8.59474e-07
8.59474e-07
8.61034e-07
8.61626e-07
8.60757e-07
8.59473e-07
8.59475e-07
8.59474e-07
8.59475e-07
8.59474e-07
8.59475e-07
8.59474e-07
8.59475e-07
8.59473e-07
8.61034e-07
8.61625e-07
8.61428e-07
8.60617e-07
8.59473e-07
8.59474e-07
8.59474e-07
8.59474e-07
8.59474e-07
8.59474e-07
8.59473e-07
8.60839e-07
8.6102e-07
8.61584e-07
8.61433e-07
8.6088e-07
8.60594e-07
8.59473e-07
8.59475e-07
8.59474e-07
8.59475e-07
8.59473e-07
8.60806e-07
8.6094e-07
8.61052e-07
8.61433e-07
8.60877e-07
8.6062e-07
8.59473e-07
8.59474e-07
8.59473e-07
8.60839e-07
8.6094e-07
8.61028e-07
8.61565e-07
8.61436e-07
8.60965e-07
8.61038e-07
8.61034e-07
8.61034e-07
8.6102e-07
8.61052e-07
8.61565e-07
8.61441e-07
8.61603e-07
8.61626e-07
8.61625e-07
8.61584e-07
8.5326e-07
8.52627e-07
8.5257e-07
8.52617e-07
8.53288e-07
8.53293e-07
8.53266e-07
8.52712e-07
8.52325e-07
8.51333e-07
8.51334e-07
8.51333e-07
8.52477e-07
8.5274e-07
8.53293e-07
8.52712e-07
8.52287e-07
8.51333e-07
8.51335e-07
8.51334e-07
8.51335e-07
8.51333e-07
8.52454e-07
8.52737e-07
8.53296e-07
8.5326e-07
8.52326e-07
8.51333e-07
8.51334e-07
8.51334e-07
8.51334e-07
8.51334e-07
8.51334e-07
8.51333e-07
8.5248e-07
8.52825e-07
8.53301e-07
8.52627e-07
8.51333e-07
8.51335e-07
8.51334e-07
8.51335e-07
8.51334e-07
8.51335e-07
8.51334e-07
8.51335e-07
8.51333e-07
8.52898e-07
8.53463e-07
8.5257e-07
8.51334e-07
8.51334e-07
8.51334e-07
8.51334e-07
8.51334e-07
8.51334e-07
8.51334e-07
8.51334e-07
8.51334e-07
8.52895e-07
8.53486e-07
8.52617e-07
8.51333e-07
8.51335e-07
8.51334e-07
8.51335e-07
8.51334e-07
8.51335e-07
8.51334e-07
8.51335e-07
8.51333e-07
8.52894e-07
8.53485e-07
8.53288e-07
8.52477e-07
8.51333e-07
8.51334e-07
8.51334e-07
8.51334e-07
8.51334e-07
8.51334e-07
8.51333e-07
8.527e-07
8.52881e-07
8.53445e-07
8.53294e-07
8.5274e-07
8.52454e-07
8.51333e-07
8.51335e-07
8.51334e-07
8.51335e-07
8.51333e-07
8.52667e-07
8.528e-07
8.52912e-07
8.53293e-07
8.52737e-07
8.5248e-07
8.51333e-07
8.51334e-07
8.51333e-07
8.527e-07
8.528e-07
8.52888e-07
8.53425e-07
8.53296e-07
8.52825e-07
8.52898e-07
8.52894e-07
8.52894e-07
8.5288e-07
8.52912e-07
8.53425e-07
8.53301e-07
8.53463e-07
8.53486e-07
8.53485e-07
8.53445e-07
8.4512e-07
8.44488e-07
8.4443e-07
8.44477e-07
8.45148e-07
8.45154e-07
8.45126e-07
8.44573e-07
8.44186e-07
8.43193e-07
8.43194e-07
8.43193e-07
8.44337e-07
8.446e-07
8.45154e-07
8.44573e-07
8.44147e-07
8.43194e-07
8.43196e-07
8.43194e-07
8.43196e-07
8.43194e-07
8.44314e-07
8.44597e-07
8.45156e-07
8.4512e-07
8.44186e-07
8.43194e-07
8.43195e-07
8.43194e-07
8.43194e-07
8.43194e-07
8.43195e-07
8.43194e-07
8.4434e-07
8.44685e-07
8.45161e-07
8.44488e-07
8.43193e-07
8.43196e-07
8.43194e-07
8.43195e-07
8.43194e-07
8.43195e-07
8.43194e-07
8.43196e-07
8.43193e-07
8.44758e-07
8.45323e-07
8.4443e-07
8.43194e-07
8.43194e-07
8.43194e-07
8.43194e-07
8.43194e-07
8.43194e-07
8.43194e-07
8.43194e-07
8.43194e-07
8.44755e-07
8.45346e-07
8.44477e-07
8.43193e-07
8.43196e-07
8.43194e-07
8.43195e-07
8.43194e-07
8.43195e-07
8.43194e-07
8.43196e-07
8.43193e-07
8.44754e-07
8.45345e-07
8.45148e-07
8.44337e-07
8.43194e-07
8.43195e-07
8.43194e-07
8.43194e-07
8.43194e-07
8.43195e-07
8.43194e-07
8.4456e-07
8.44741e-07
8.45305e-07
8.45154e-07
8.446e-07
8.44314e-07
8.43194e-07
8.43196e-07
8.43194e-07
8.43196e-07
8.43194e-07
8.44527e-07
8.44661e-07
8.44772e-07
8.45154e-07
8.44597e-07
8.4434e-07
8.43193e-07
8.43194e-07
8.43193e-07
8.4456e-07
8.44661e-07
8.44748e-07
8.45285e-07
8.45156e-07
8.44685e-07
8.44758e-07
8.44755e-07
8.44754e-07
8.44741e-07
8.44772e-07
8.45285e-07
8.45161e-07
8.45323e-07
8.45346e-07
8.45345e-07
8.45305e-07
8.3698e-07
8.36348e-07
8.3629e-07
8.36337e-07
8.37009e-07
8.37014e-07
8.36987e-07
8.36433e-07
8.36046e-07
8.35053e-07
8.35054e-07
8.35053e-07
8.36198e-07
8.3646e-07
8.37014e-07
8.36433e-07
8.36007e-07
8.35054e-07
8.35056e-07
8.35054e-07
8.35056e-07
8.35054e-07
8.36174e-07
8.36458e-07
8.37017e-07
8.3698e-07
8.36046e-07
8.35054e-07
8.35055e-07
8.35054e-07
8.35055e-07
8.35054e-07
8.35055e-07
8.35054e-07
8.362e-07
8.36546e-07
8.37021e-07
8.36348e-07
8.35053e-07
8.35056e-07
8.35054e-07
8.35056e-07
8.35054e-07
8.35056e-07
8.35054e-07
8.35056e-07
8.35053e-07
8.36619e-07
8.37183e-07
8.3629e-07
8.35054e-07
8.35054e-07
8.35055e-07
8.35054e-07
8.35054e-07
8.35054e-07
8.35054e-07
8.35054e-07
8.35054e-07
8.36615e-07
8.37206e-07
8.36337e-07
8.35053e-07
8.35056e-07
8.35054e-07
8.35056e-07
8.35054e-07
8.35056e-07
8.35054e-07
8.35056e-07
8.35053e-07
8.36614e-07
8.37206e-07
8.37009e-07
8.36198e-07
8.35054e-07
8.35055e-07
8.35054e-07
8.35054e-07
8.35054e-07
8.35055e-07
8.35054e-07
8.3642e-07
8.36601e-07
8.37165e-07
8.37014e-07
8.3646e-07
8.36174e-07
8.35054e-07
8.35056e-07
8.35054e-07
8.35056e-07
8.35054e-07
8.36387e-07
8.36521e-07
8.36632e-07
8.37014e-07
8.36458e-07
8.362e-07
8.35053e-07
8.35054e-07
8.35053e-07
8.3642e-07
8.36521e-07
8.36608e-07
8.37145e-07
8.37017e-07
8.36546e-07
8.36619e-07
8.36615e-07
8.36614e-07
8.36601e-07
8.36632e-07
8.37145e-07
8.37021e-07
8.37183e-07
8.37206e-07
8.37206e-07
8.37165e-07
8.2884e-07
8.28208e-07
8.28151e-07
8.28198e-07
8.28869e-07
8.28874e-07
8.28847e-07
8.28293e-07
8.27906e-07
8.26914e-07
8.26914e-07
8.26914e-07
8.28058e-07
8.28321e-07
8.28874e-07
8.28293e-07
8.27867e-07
8.26914e-07
8.26916e-07
8.26915e-07
8.26916e-07
8.26914e-07
8.28035e-07
8.28318e-07
8.28877e-07
8.2884e-07
8.27906e-07
8.26914e-07
8.26915e-07
8.26914e-07
8.26915e-07
8.26914e-07
8.26915e-07
8.26914e-07
8.28061e-07
8.28406e-07
8.28882e-07
8.28208e-07
8.26914e-07
8.26916e-07
8.26914e-07
8.26916e-07
8.26914e-07
8.26916e-07
8.26914e-07
8.26916e-07
8.26914e-07
8.28479e-07
8.29043e-07
8.28151e-07
8.26914e-07
8.26915e-07
8.26915e-07
8.26914e-07
8.26915e-07
8.26914e-07
8.26915e-07
8.26915e-07
8.26914e-07
8.28475e-07
8.29066e-07
8.28198e-07
8.26914e-07
8.26916e-07
8.26914e-07
8.26916e-07
8.26914e-07
8.26916e-07
8.26914e-07
8.26916e-07
8.26914e-07
8.28474e-07
8.29066e-07
8.28869e-07
8.28058e-07
8.26914e-07
8.26915e-07
8.26914e-07
8.26915e-07
8.26914e-07
8.26915e-07
8.26914e-07
8.2828e-07
8.28461e-07
8.29025e-07
8.28874e-07
8.28321e-07
8.28035e-07
8.26914e-07
8.26916e-07
8.26914e-07
8.26916e-07
8.26914e-07
8.28247e-07
8.28381e-07
8.28493e-07
8.28874e-07
8.28318e-07
8.2806e-07
8.26914e-07
8.26914e-07
8.26914e-07
8.2828e-07
8.28381e-07
8.28469e-07
8.29005e-07
8.28877e-07
8.28406e-07
8.28479e-07
8.28475e-07
8.28474e-07
8.28461e-07
8.28493e-07
8.29005e-07
8.28882e-07
8.29043e-07
8.29066e-07
8.29066e-07
8.29025e-07
8.20701e-07
8.20068e-07
8.20011e-07
8.20058e-07
8.20729e-07
8.20734e-07
8.20707e-07
8.20153e-07
8.19766e-07
8.18774e-07
8.18775e-07
8.18774e-07
8.19918e-07
8.20181e-07
8.20734e-07
8.20153e-07
8.19728e-07
8.18774e-07
8.18776e-07
8.18775e-07
8.18776e-07
8.18774e-07
8.19895e-07
8.20178e-07
8.20737e-07
8.20701e-07
8.19766e-07
8.18774e-07
8.18775e-07
8.18774e-07
8.18775e-07
8.18774e-07
8.18775e-07
8.18774e-07
8.19921e-07
8.20266e-07
8.20742e-07
8.20068e-07
8.18774e-07
8.18776e-07
8.18774e-07
8.18776e-07
8.18775e-07
8.18776e-07
8.18774e-07
8.18776e-07
8.18774e-07
8.20339e-07
8.20904e-07
8.20011e-07
8.18775e-07
8.18775e-07
8.18775e-07
8.18775e-07
8.18775e-07
8.18775e-07
8.18775e-07
8.18775e-07
8.18775e-07
8.20335e-07
8.20927e-07
8.20058e-07
8.18774e-07
8.18776e-07
8.18774e-07
8.18776e-07
8.18775e-07
8.18776e-07
8.18774e-07
8.18776e-07
8.18774e-07
8.20335e-07
8.20926e-07
8.20729e-07
8.19918e-07
8.18774e-07
8.18775e-07
8.18774e-07
8.18775e-07
8.18774e-07
8.18775e-07
8.18774e-07
8.2014e-07
8.20321e-07
8.20885e-07
8.20734e-07
8.20181e-07
8.19895e-07
8.18774e-07
8.18776e-07
8.18775e-07
8.18776e-07
8.18774e-07
8.20107e-07
8.20241e-07
8.20353e-07
8.20734e-07
8.20178e-07
8.19921e-07
8.18774e-07
8.18775e-07
8.18774e-07
8.2014e-07
8.20241e-07
8.20329e-07
8.20866e-07
8.20737e-07
8.20266e-07
8.20339e-07
8.20335e-07
8.20335e-07
8.20321e-07
8.20353e-07
8.20866e-07
8.20742e-07
8.20904e-07
8.20927e-07
8.20926e-07
8.20885e-07
8.12561e-07
8.11928e-07
8.11871e-07
8.11918e-07
8.12589e-07
8.12594e-07
8.12567e-07
8.12013e-07
8.11627e-07
8.10634e-07
8.10635e-07
8.10634e-07
8.11778e-07
8.12041e-07
8.12594e-07
8.12013e-07
8.11588e-07
8.10634e-07
8.10636e-07
8.10635e-07
8.10636e-07
8.10634e-07
8.11755e-07
8.12038e-07
8.12597e-07
8.12561e-07
8.11627e-07
8.10634e-07
8.10635e-07
8.10634e-07
8.10635e-07
8.10634e-07
8.10635e-07
8.10634e-07
8.11781e-07
8.12126e-07
8.12602e-07
8.11928e-07
8.10634e-07
8.10636e-07
8.10634e-07
8.10636e-07
8.10635e-07
8.10636e-07
8.10634e-07
8.10636e-07
8.10634e-07
8.12199e-07
8.12764e-07
8.11871e-07
8.10635e-07
8.10635e-07
8.10635e-07
8.10635e-07
8.10635e-07
8.10635e-07
8.10635e-07
8.10635e-07
8.10635e-07
8.12196e-07
8.12787e-07
8.11918e-07
8.10634e-07
8.10636e-07
8.10634e-07
8.10636e-07
8.10635e-07
8.10636e-07
8.10635e-07
8.10636e-07
8.10634e-07
8.12195e-07
8.12786e-07
8.12589e-07
8.11778e-07
8.10634e-07
8.10635e-07
8.10634e-07
8.10635e-07
8.10635e-07
8.10635e-07
8.10634e-07
8.12001e-07
8.12182e-07
8.12746e-07
8.12594e-07
8.12041e-07
8.11755e-07
8.10634e-07
8.10636e-07
8.10635e-07
8.10636e-07
8.10634e-07
8.11968e-07
8.12101e-07
8.12213e-07
8.12594e-07
8.12038e-07
8.11781e-07
8.10634e-07
8.10635e-07
8.10634e-07
8.12001e-07
8.12101e-07
8.12189e-07
8.12726e-07
8.12597e-07
8.12126e-07
8.12199e-07
8.12196e-07
8.12195e-07
8.12182e-07
8.12213e-07
8.12726e-07
8.12602e-07
8.12764e-07
8.12787e-07
8.12786e-07
8.12746e-07
8.04421e-07
8.03789e-07
8.03731e-07
8.03778e-07
8.04449e-07
8.04455e-07
8.04428e-07
8.03874e-07
8.03487e-07
8.02494e-07
8.02495e-07
8.02494e-07
8.03638e-07
8.03901e-07
8.04455e-07
8.03874e-07
8.03448e-07
8.02495e-07
8.02496e-07
8.02495e-07
8.02496e-07
8.02495e-07
8.03615e-07
8.03898e-07
8.04457e-07
8.04421e-07
8.03487e-07
8.02495e-07
8.02496e-07
8.02495e-07
8.02495e-07
8.02495e-07
8.02496e-07
8.02495e-07
8.03641e-07
8.03986e-07
8.04462e-07
8.03788e-07
8.02494e-07
8.02497e-07
8.02495e-07
8.02496e-07
8.02495e-07
8.02496e-07
8.02495e-07
8.02496e-07
8.02494e-07
8.04059e-07
8.04624e-07
8.03731e-07
8.02495e-07
8.02495e-07
8.02495e-07
8.02495e-07
8.02495e-07
8.02495e-07
8.02495e-07
8.02495e-07
8.02495e-07
8.04056e-07
8.04647e-07
8.03778e-07
8.02494e-07