/*--------------------------------*- C++ -*----------------------------------*\
| =========                 |                                                 |
| \\      /  F ield         | OpenFOAM: The Open Source CFD Toolbox           |
|  \\    /   O peration     | Version:  v2012                                 |
|   \\  /    A nd           | Website:  www.openfoam.com                      |
|    \\/     M anipulation  |                                                 |
\*---------------------------------------------------------------------------*/
FoamFile
{
    version     2.0;
    format      ascii;
    class       volScalarField;
    location    "70";
    object      p;
}
// * * * * * * * * * * * * * * * * * * * * * * * * * * * * * * * * * * * * * //

dimensions      [0 2 -2 0 0 0 0];


internalField   nonuniform List<scalar> 
292667
(
1.06094e-06
1.052e-06
1.05133e-06
1.05139e-06
1.05229e-06
1.0618e-06
1.05221e-06
1.04991e-06
1.04856e-06
1.048e-06
1.04807e-06
1.0488e-06
1.05035e-06
1.05284e-06
1.05221e-06
1.04925e-06
1.04738e-06
1.04635e-06
1.04591e-06
1.04597e-06
1.04653e-06
1.04773e-06
1.04983e-06
1.05301e-06
1.06094e-06
1.04991e-06
1.04738e-06
1.04586e-06
1.04501e-06
1.04465e-06
1.0447e-06
1.04517e-06
1.04616e-06
1.04787e-06
1.0507e-06
1.06041e-06
1.052e-06
1.04856e-06
1.04635e-06
1.04501e-06
1.04426e-06
1.04393e-06
1.04397e-06
1.0444e-06
1.04528e-06
1.04679e-06
1.04929e-06
1.05533e-06
1.05133e-06
1.048e-06
1.04591e-06
1.04465e-06
1.04393e-06
1.04362e-06
1.04366e-06
1.04407e-06
1.0449e-06
1.04634e-06
1.04871e-06
1.05382e-06
1.05139e-06
1.04807e-06
1.04597e-06
1.0447e-06
1.04397e-06
1.04366e-06
1.0437e-06
1.04411e-06
1.04496e-06
1.0464e-06
1.04879e-06
1.05412e-06
1.05229e-06
1.0488e-06
1.04653e-06
1.04517e-06
1.0444e-06
1.04407e-06
1.04411e-06
1.04455e-06
1.04545e-06
1.047e-06
1.04957e-06
1.05561e-06
1.0618e-06
1.05035e-06
1.04773e-06
1.04615e-06
1.04528e-06
1.0449e-06
1.04496e-06
1.04545e-06
1.04647e-06
1.04827e-06
1.0512e-06
1.06026e-06
1.05284e-06
1.04983e-06
1.04787e-06
1.04679e-06
1.04634e-06
1.0464e-06
1.047e-06
1.04827e-06
1.05048e-06
1.05629e-06
1.05301e-06
1.0507e-06
1.04929e-06
1.04871e-06
1.04879e-06
1.04957e-06
1.0512e-06
1.05629e-06
1.06041e-06
1.05533e-06
1.05382e-06
1.05412e-06
1.05561e-06
1.06026e-06
1.03692e-06
1.03627e-06
1.03624e-06
1.0363e-06
1.03696e-06
1.03682e-06
1.03695e-06
1.03645e-06
1.03612e-06
1.03497e-06
1.03495e-06
1.03497e-06
1.03628e-06
1.03651e-06
1.03701e-06
1.03645e-06
1.0361e-06
1.03501e-06
1.03496e-06
1.03501e-06
1.03496e-06
1.03501e-06
1.03626e-06
1.0365e-06
1.03699e-06
1.03692e-06
1.03612e-06
1.03501e-06
1.03495e-06
1.03497e-06
1.03496e-06
1.03497e-06
1.03495e-06
1.03501e-06
1.03627e-06
1.03653e-06
1.03701e-06
1.03627e-06
1.03497e-06
1.03496e-06
1.03497e-06
1.03493e-06
1.03494e-06
1.03493e-06
1.03498e-06
1.03496e-06
1.03497e-06
1.03669e-06
1.03719e-06
1.03624e-06
1.03495e-06
1.03501e-06
1.03496e-06
1.03494e-06
1.03493e-06
1.03494e-06
1.03496e-06
1.03501e-06
1.03495e-06
1.03671e-06
1.03713e-06
1.0363e-06
1.03497e-06
1.03496e-06
1.03497e-06
1.03493e-06
1.03494e-06
1.03493e-06
1.03497e-06
1.03496e-06
1.03497e-06
1.03671e-06
1.03715e-06
1.03696e-06
1.03628e-06
1.03501e-06
1.03495e-06
1.03498e-06
1.03496e-06
1.03498e-06
1.03495e-06
1.03501e-06
1.03647e-06
1.0366e-06
1.03714e-06
1.03682e-06
1.03651e-06
1.03626e-06
1.03501e-06
1.03496e-06
1.03501e-06
1.03496e-06
1.03501e-06
1.03643e-06
1.03657e-06
1.03656e-06
1.03701e-06
1.0365e-06
1.03627e-06
1.03497e-06
1.03495e-06
1.03497e-06
1.03647e-06
1.03657e-06
1.0366e-06
1.0371e-06
1.03699e-06
1.03653e-06
1.03669e-06
1.03671e-06
1.03671e-06
1.0366e-06
1.03656e-06
1.0371e-06
1.03701e-06
1.03719e-06
1.03713e-06
1.03715e-06
1.03714e-06
1.02811e-06
1.0274e-06
1.02735e-06
1.02739e-06
1.02812e-06
1.02814e-06
1.02812e-06
1.02751e-06
1.02712e-06
1.02601e-06
1.02601e-06
1.02601e-06
1.02728e-06
1.02755e-06
1.02813e-06
1.02751e-06
1.0271e-06
1.02605e-06
1.02606e-06
1.02609e-06
1.02606e-06
1.02605e-06
1.02727e-06
1.02755e-06
1.02813e-06
1.02811e-06
1.02712e-06
1.02605e-06
1.02607e-06
1.02611e-06
1.02611e-06
1.02611e-06
1.02607e-06
1.02605e-06
1.02729e-06
1.02761e-06
1.02815e-06
1.0274e-06
1.02601e-06
1.02606e-06
1.02611e-06
1.02612e-06
1.02614e-06
1.02612e-06
1.02611e-06
1.02606e-06
1.02601e-06
1.02768e-06
1.0283e-06
1.02735e-06
1.02601e-06
1.02609e-06
1.02611e-06
1.02614e-06
1.02614e-06
1.02614e-06
1.02611e-06
1.02609e-06
1.02601e-06
1.02768e-06
1.02833e-06
1.02739e-06
1.02601e-06
1.02606e-06
1.02611e-06
1.02612e-06
1.02614e-06
1.02612e-06
1.02611e-06
1.02606e-06
1.02601e-06
1.02768e-06
1.02833e-06
1.02812e-06
1.02728e-06
1.02605e-06
1.02607e-06
1.02611e-06
1.02611e-06
1.02611e-06
1.02607e-06
1.02605e-06
1.0275e-06
1.02766e-06
1.02829e-06
1.02814e-06
1.02755e-06
1.02727e-06
1.02605e-06
1.02606e-06
1.02609e-06
1.02606e-06
1.02605e-06
1.02748e-06
1.0276e-06
1.02768e-06
1.02813e-06
1.02755e-06
1.02729e-06
1.02601e-06
1.02601e-06
1.02601e-06
1.0275e-06
1.0276e-06
1.02767e-06
1.02827e-06
1.02813e-06
1.02761e-06
1.02768e-06
1.02768e-06
1.02768e-06
1.02766e-06
1.02768e-06
1.02827e-06
1.02815e-06
1.0283e-06
1.02833e-06
1.02833e-06
1.02829e-06
1.01932e-06
1.0186e-06
1.01854e-06
1.01859e-06
1.01933e-06
1.01935e-06
1.01933e-06
1.0187e-06
1.01829e-06
1.01717e-06
1.01717e-06
1.01717e-06
1.01844e-06
1.01873e-06
1.01934e-06
1.0187e-06
1.01826e-06
1.01719e-06
1.0172e-06
1.01722e-06
1.0172e-06
1.01719e-06
1.01843e-06
1.01872e-06
1.01934e-06
1.01932e-06
1.01829e-06
1.01719e-06
1.01721e-06
1.01724e-06
1.01724e-06
1.01724e-06
1.01721e-06
1.01719e-06
1.01845e-06
1.0188e-06
1.01936e-06
1.0186e-06
1.01717e-06
1.0172e-06
1.01724e-06
1.01726e-06
1.01727e-06
1.01726e-06
1.01724e-06
1.0172e-06
1.01717e-06
1.01886e-06
1.01951e-06
1.01854e-06
1.01717e-06
1.01722e-06
1.01724e-06
1.01727e-06
1.01728e-06
1.01727e-06
1.01724e-06
1.01722e-06
1.01717e-06
1.01886e-06
1.01953e-06
1.01859e-06
1.01717e-06
1.0172e-06
1.01724e-06
1.01726e-06
1.01727e-06
1.01726e-06
1.01724e-06
1.0172e-06
1.01717e-06
1.01886e-06
1.01953e-06
1.01933e-06
1.01844e-06
1.01719e-06
1.01721e-06
1.01724e-06
1.01724e-06
1.01724e-06
1.01721e-06
1.01719e-06
1.01866e-06
1.01885e-06
1.0195e-06
1.01935e-06
1.01873e-06
1.01843e-06
1.01719e-06
1.0172e-06
1.01722e-06
1.0172e-06
1.01719e-06
1.01864e-06
1.01878e-06
1.01889e-06
1.01934e-06
1.01872e-06
1.01845e-06
1.01717e-06
1.01717e-06
1.01717e-06
1.01866e-06
1.01878e-06
1.01887e-06
1.01948e-06
1.01934e-06
1.0188e-06
1.01886e-06
1.01886e-06
1.01886e-06
1.01885e-06
1.01889e-06
1.01948e-06
1.01936e-06
1.01951e-06
1.01953e-06
1.01953e-06
1.0195e-06
1.01052e-06
1.0098e-06
1.00974e-06
1.00979e-06
1.01053e-06
1.01055e-06
1.01054e-06
1.0099e-06
1.00949e-06
1.00835e-06
1.00836e-06
1.00835e-06
1.00964e-06
1.00992e-06
1.01055e-06
1.0099e-06
1.00945e-06
1.00836e-06
1.00838e-06
1.00838e-06
1.00838e-06
1.00836e-06
1.00962e-06
1.00992e-06
1.01055e-06
1.01052e-06
1.00949e-06
1.00836e-06
1.00838e-06
1.0084e-06
1.0084e-06
1.0084e-06
1.00838e-06
1.00836e-06
1.00964e-06
1.01001e-06
1.01057e-06
1.0098e-06
1.00835e-06
1.00838e-06
1.0084e-06
1.00841e-06
1.00842e-06
1.00841e-06
1.0084e-06
1.00838e-06
1.00835e-06
1.01006e-06
1.01072e-06
1.00974e-06
1.00836e-06
1.00838e-06
1.0084e-06
1.00842e-06
1.00842e-06
1.00842e-06
1.0084e-06
1.00838e-06
1.00836e-06
1.01006e-06
1.01074e-06
1.00979e-06
1.00835e-06
1.00838e-06
1.0084e-06
1.00841e-06
1.00842e-06
1.00841e-06
1.0084e-06
1.00838e-06
1.00835e-06
1.01006e-06
1.01074e-06
1.01053e-06
1.00964e-06
1.00836e-06
1.00838e-06
1.0084e-06
1.0084e-06
1.0084e-06
1.00838e-06
1.00836e-06
1.00985e-06
1.01005e-06
1.01071e-06
1.01055e-06
1.00992e-06
1.00962e-06
1.00836e-06
1.00838e-06
1.00838e-06
1.00838e-06
1.00836e-06
1.00983e-06
1.00998e-06
1.0101e-06
1.01055e-06
1.00992e-06
1.00964e-06
1.00835e-06
1.00836e-06
1.00835e-06
1.00985e-06
1.00998e-06
1.01007e-06
1.01069e-06
1.01055e-06
1.01001e-06
1.01006e-06
1.01006e-06
1.01006e-06
1.01005e-06
1.0101e-06
1.01069e-06
1.01057e-06
1.01072e-06
1.01074e-06
1.01074e-06
1.01071e-06
1.00173e-06
1.00101e-06
1.00094e-06
1.00099e-06
1.00174e-06
1.00176e-06
1.00174e-06
1.00111e-06
1.00069e-06
9.99549e-07
9.9955e-07
9.99549e-07
1.00084e-06
1.00113e-06
1.00175e-06
1.00111e-06
1.00065e-06
9.99555e-07
9.99561e-07
9.99565e-07
9.99562e-07
9.99554e-07
1.00081e-06
1.00112e-06
1.00175e-06
1.00173e-06
1.00069e-06
9.99555e-07
9.99564e-07
9.99574e-07
9.99576e-07
9.99574e-07
9.99564e-07
9.99555e-07
1.00084e-06
1.00121e-06
1.00177e-06
1.00101e-06
9.99549e-07
9.99562e-07
9.99574e-07
9.99583e-07
9.99587e-07
9.99583e-07
9.99574e-07
9.99562e-07
9.99549e-07
1.00127e-06
1.00192e-06
1.00094e-06
9.9955e-07
9.99565e-07
9.99576e-07
9.99587e-07
9.99589e-07
9.99587e-07
9.99576e-07
9.99565e-07
9.9955e-07
1.00126e-06
1.00194e-06
1.00099e-06
9.99549e-07
9.99562e-07
9.99574e-07
9.99583e-07
9.99587e-07
9.99583e-07
9.99574e-07
9.99562e-07
9.99549e-07
1.00126e-06
1.00194e-06
1.00174e-06
1.00084e-06
9.99554e-07
9.99564e-07
9.99574e-07
9.99576e-07
9.99574e-07
9.99564e-07
9.99554e-07
1.00105e-06
1.00126e-06
1.00191e-06
1.00176e-06
1.00113e-06
1.00081e-06
9.99555e-07
9.99562e-07
9.99565e-07
9.99562e-07
9.99555e-07
1.00102e-06
1.00118e-06
1.0013e-06
1.00175e-06
1.00112e-06
1.00084e-06
9.99549e-07
9.9955e-07
9.99549e-07
1.00105e-06
1.00118e-06
1.00128e-06
1.00189e-06
1.00175e-06
1.00121e-06
1.00127e-06
1.00126e-06
1.00126e-06
1.00126e-06
1.0013e-06
1.00189e-06
1.00177e-06
1.00192e-06
1.00194e-06
1.00194e-06
1.00191e-06
9.92929e-07
9.92208e-07
9.92147e-07
9.92195e-07
9.92941e-07
9.92962e-07
9.92944e-07
9.9231e-07
9.91886e-07
9.90748e-07
9.90749e-07
9.90748e-07
9.92037e-07
9.92329e-07
9.92954e-07
9.9231e-07
9.9185e-07
9.90751e-07
9.90755e-07
9.90757e-07
9.90755e-07
9.90751e-07
9.92015e-07
9.92326e-07
9.92957e-07
9.92929e-07
9.91886e-07
9.90751e-07
9.90757e-07
9.90762e-07
9.90763e-07
9.90762e-07
9.90757e-07
9.90751e-07
9.9204e-07
9.92412e-07
9.92975e-07
9.92209e-07
9.90748e-07
9.90756e-07
9.90762e-07
9.90767e-07
9.9077e-07
9.90767e-07
9.90762e-07
9.90755e-07
9.90748e-07
9.92469e-07
9.93125e-07
9.92147e-07
9.90749e-07
9.90757e-07
9.90763e-07
9.90769e-07
9.90771e-07
9.90769e-07
9.90763e-07
9.90757e-07
9.90749e-07
9.92461e-07
9.93143e-07
9.92195e-07
9.90748e-07
9.90755e-07
9.90762e-07
9.90767e-07
9.9077e-07
9.90767e-07
9.90762e-07
9.90755e-07
9.90748e-07
9.92463e-07
9.93143e-07
9.92941e-07
9.92037e-07
9.90751e-07
9.90757e-07
9.90762e-07
9.90763e-07
9.90762e-07
9.90757e-07
9.90751e-07
9.92255e-07
9.9246e-07
9.93115e-07
9.92962e-07
9.92329e-07
9.92015e-07
9.90751e-07
9.90756e-07
9.90757e-07
9.90756e-07
9.90751e-07
9.92223e-07
9.92381e-07
9.92503e-07
9.92954e-07
9.92326e-07
9.9204e-07
9.90748e-07
9.90749e-07
9.90748e-07
9.92255e-07
9.92381e-07
9.92479e-07
9.93096e-07
9.92957e-07
9.92412e-07
9.92469e-07
9.92461e-07
9.92463e-07
9.9246e-07
9.92503e-07
9.93095e-07
9.92975e-07
9.93125e-07
9.93143e-07
9.93143e-07
9.93114e-07
9.84132e-07
9.83411e-07
9.83349e-07
9.83397e-07
9.84144e-07
9.84164e-07
9.84147e-07
9.83512e-07
9.83088e-07
9.81948e-07
9.81949e-07
9.81948e-07
9.83239e-07
9.83531e-07
9.84157e-07
9.83512e-07
9.83051e-07
9.8195e-07
9.81953e-07
9.81953e-07
9.81953e-07
9.8195e-07
9.83216e-07
9.83528e-07
9.8416e-07
9.84131e-07
9.83088e-07
9.8195e-07
9.81954e-07
9.81956e-07
9.81957e-07
9.81956e-07
9.81954e-07
9.8195e-07
9.83241e-07
9.83614e-07
9.84178e-07
9.83411e-07
9.81948e-07
9.81953e-07
9.81956e-07
9.8196e-07
9.81961e-07
9.8196e-07
9.81956e-07
9.81953e-07
9.81948e-07
9.83671e-07
9.84328e-07
9.83349e-07
9.81949e-07
9.81953e-07
9.81957e-07
9.81961e-07
9.81962e-07
9.81961e-07
9.81957e-07
9.81953e-07
9.81949e-07
9.83663e-07
9.84345e-07
9.83397e-07
9.81948e-07
9.81953e-07
9.81956e-07
9.8196e-07
9.81961e-07
9.8196e-07
9.81956e-07
9.81953e-07
9.81948e-07
9.83665e-07
9.84346e-07
9.84144e-07
9.83239e-07
9.8195e-07
9.81954e-07
9.81956e-07
9.81957e-07
9.81956e-07
9.81954e-07
9.8195e-07
9.83457e-07
9.83663e-07
9.84317e-07
9.84164e-07
9.83531e-07
9.83216e-07
9.8195e-07
9.81953e-07
9.81954e-07
9.81953e-07
9.8195e-07
9.83424e-07
9.83583e-07
9.83706e-07
9.84157e-07
9.83528e-07
9.83241e-07
9.81949e-07
9.8195e-07
9.81949e-07
9.83457e-07
9.83583e-07
9.83682e-07
9.84299e-07
9.8416e-07
9.83614e-07
9.83671e-07
9.83663e-07
9.83665e-07
9.83663e-07
9.83706e-07
9.84298e-07
9.84178e-07
9.84328e-07
9.84345e-07
9.84346e-07
9.84317e-07
9.75334e-07
9.74613e-07
9.74551e-07
9.74599e-07
9.75346e-07
9.75367e-07
9.75349e-07
9.74714e-07
9.7429e-07
9.7315e-07
9.73151e-07
9.7315e-07
9.74441e-07
9.74733e-07
9.75359e-07
9.74714e-07
9.74253e-07
9.73151e-07
9.73153e-07
9.73153e-07
9.73153e-07
9.73151e-07
9.74418e-07
9.74731e-07
9.75363e-07
9.75334e-07
9.7429e-07
9.73151e-07
9.73153e-07
9.73154e-07
9.73155e-07
9.73154e-07
9.73153e-07
9.73151e-07
9.74443e-07
9.74817e-07
9.7538e-07
9.74613e-07
9.7315e-07
9.73153e-07
9.73154e-07
9.73157e-07
9.73157e-07
9.73157e-07
9.73154e-07
9.73153e-07
9.7315e-07
9.74874e-07
9.7553e-07
9.74551e-07
9.73151e-07
9.73153e-07
9.73155e-07
9.73157e-07
9.73157e-07
9.73157e-07
9.73155e-07
9.73153e-07
9.73151e-07
9.74865e-07
9.75548e-07
9.74599e-07
9.7315e-07
9.73153e-07
9.73154e-07
9.73157e-07
9.73157e-07
9.73157e-07
9.73154e-07
9.73153e-07
9.7315e-07
9.74867e-07
9.75548e-07
9.75346e-07
9.74441e-07
9.73151e-07
9.73153e-07
9.73154e-07
9.73155e-07
9.73154e-07
9.73153e-07
9.73151e-07
9.74659e-07
9.74865e-07
9.7552e-07
9.75367e-07
9.74733e-07
9.74418e-07
9.73151e-07
9.73153e-07
9.73153e-07
9.73153e-07
9.73151e-07
9.74626e-07
9.74785e-07
9.74908e-07
9.75359e-07
9.74731e-07
9.74443e-07
9.7315e-07
9.73151e-07
9.7315e-07
9.74659e-07
9.74785e-07
9.74884e-07
9.75501e-07
9.75363e-07
9.74817e-07
9.74874e-07
9.74865e-07
9.74867e-07
9.74865e-07
9.74909e-07
9.75501e-07
9.7538e-07
9.7553e-07
9.75548e-07
9.75548e-07
9.7552e-07
9.66536e-07
9.65815e-07
9.65753e-07
9.65801e-07
9.66548e-07
9.66569e-07
9.66551e-07
9.65916e-07
9.65492e-07
9.64352e-07
9.64352e-07
9.64352e-07
9.65643e-07
9.65935e-07
9.66562e-07
9.65916e-07
9.65455e-07
9.64352e-07
9.64354e-07
9.64354e-07
9.64354e-07
9.64352e-07
9.6562e-07
9.65933e-07
9.66565e-07
9.66536e-07
9.65492e-07
9.64352e-07
9.64354e-07
9.64354e-07
9.64355e-07
9.64354e-07
9.64354e-07
9.64352e-07
9.65645e-07
9.66019e-07
9.66583e-07
9.65815e-07
9.64352e-07
9.64354e-07
9.64354e-07
9.64356e-07
9.64356e-07
9.64356e-07
9.64354e-07
9.64354e-07
9.64352e-07
9.66075e-07
9.66732e-07
9.65753e-07
9.64352e-07
9.64354e-07
9.64355e-07
9.64356e-07
9.64356e-07
9.64356e-07
9.64355e-07
9.64354e-07
9.64352e-07
9.66067e-07
9.6675e-07
9.65801e-07
9.64352e-07
9.64354e-07
9.64354e-07
9.64356e-07
9.64356e-07
9.64356e-07
9.64354e-07
9.64354e-07
9.64352e-07
9.66069e-07
9.6675e-07
9.66548e-07
9.65643e-07
9.64352e-07
9.64354e-07
9.64354e-07
9.64355e-07
9.64354e-07
9.64354e-07
9.64352e-07
9.6586e-07
9.66067e-07
9.66722e-07
9.66569e-07
9.65935e-07
9.6562e-07
9.64352e-07
9.64354e-07
9.64354e-07
9.64354e-07
9.64352e-07
9.65828e-07
9.65987e-07
9.66111e-07
9.66562e-07
9.65933e-07
9.65645e-07
9.64352e-07
9.64352e-07
9.64352e-07
9.6586e-07
9.65987e-07
9.66086e-07
9.66703e-07
9.66565e-07
9.66019e-07
9.66075e-07
9.66067e-07
9.66069e-07
9.66067e-07
9.66111e-07
9.66703e-07
9.66583e-07
9.66732e-07
9.6675e-07
9.6675e-07
9.66722e-07
9.57739e-07
9.57017e-07
9.56955e-07
9.57003e-07
9.5775e-07
9.57771e-07
9.57754e-07
9.57119e-07
9.56694e-07
9.55553e-07
9.55554e-07
9.55553e-07
9.56845e-07
9.57137e-07
9.57764e-07
9.57119e-07
9.56657e-07
9.55554e-07
9.55556e-07
9.55555e-07
9.55556e-07
9.55554e-07
9.56822e-07
9.57135e-07
9.57767e-07
9.57738e-07
9.56694e-07
9.55554e-07
9.55555e-07
9.55555e-07
9.55556e-07
9.55555e-07
9.55555e-07
9.55554e-07
9.56847e-07
9.57221e-07
9.57785e-07
9.57017e-07
9.55553e-07
9.55556e-07
9.55555e-07
9.55556e-07
9.55556e-07
9.55556e-07
9.55555e-07
9.55556e-07
9.55553e-07
9.57278e-07
9.57934e-07
9.56955e-07
9.55554e-07
9.55555e-07
9.55556e-07
9.55556e-07
9.55556e-07
9.55556e-07
9.55556e-07
9.55555e-07
9.55554e-07
9.57269e-07
9.57952e-07
9.57003e-07
9.55553e-07
9.55556e-07
9.55555e-07
9.55556e-07
9.55556e-07
9.55556e-07
9.55555e-07
9.55556e-07
9.55553e-07
9.57271e-07
9.57952e-07
9.5775e-07
9.56845e-07
9.55554e-07
9.55555e-07
9.55555e-07
9.55556e-07
9.55555e-07
9.55555e-07
9.55554e-07
9.57063e-07
9.57269e-07
9.57924e-07
9.57771e-07
9.57137e-07
9.56822e-07
9.55554e-07
9.55556e-07
9.55555e-07
9.55556e-07
9.55554e-07
9.57029e-07
9.57189e-07
9.57313e-07
9.57764e-07
9.57135e-07
9.56847e-07
9.55553e-07
9.55554e-07
9.55553e-07
9.57063e-07
9.57189e-07
9.57288e-07
9.57905e-07
9.57767e-07
9.57221e-07
9.57278e-07
9.57269e-07
9.57271e-07
9.57269e-07
9.57313e-07
9.57905e-07
9.57785e-07
9.57934e-07
9.57952e-07
9.57952e-07
9.57924e-07
9.48941e-07
9.48219e-07
9.48157e-07
9.48205e-07
9.48953e-07
9.48974e-07
9.48956e-07
9.48321e-07
9.47896e-07
9.46756e-07
9.46756e-07
9.46756e-07
9.48047e-07
9.4834e-07
9.48966e-07
9.48321e-07
9.47859e-07
9.46756e-07
9.46758e-07
9.46757e-07
9.46758e-07
9.46756e-07
9.48024e-07
9.48337e-07
9.48969e-07
9.48941e-07
9.47896e-07
9.46756e-07
9.46757e-07
9.46756e-07
9.46757e-07
9.46757e-07
9.46757e-07
9.46756e-07
9.48049e-07
9.48423e-07
9.48987e-07
9.48219e-07
9.46756e-07
9.46758e-07
9.46756e-07
9.46758e-07
9.46757e-07
9.46758e-07
9.46756e-07
9.46758e-07
9.46755e-07
9.4848e-07
9.49137e-07
9.48157e-07
9.46756e-07
9.46757e-07
9.46757e-07
9.46757e-07
9.46757e-07
9.46757e-07
9.46757e-07
9.46757e-07
9.46756e-07
9.48471e-07
9.49154e-07
9.48205e-07
9.46755e-07
9.46758e-07
9.46756e-07
9.46758e-07
9.46757e-07
9.46758e-07
9.46756e-07
9.46758e-07
9.46755e-07
9.48474e-07
9.49154e-07
9.48953e-07
9.48047e-07
9.46756e-07
9.46757e-07
9.46757e-07
9.46757e-07
9.46756e-07
9.46757e-07
9.46756e-07
9.48265e-07
9.48472e-07
9.49126e-07
9.48973e-07
9.4834e-07
9.48024e-07
9.46756e-07
9.46758e-07
9.46757e-07
9.46758e-07
9.46756e-07
9.48232e-07
9.48391e-07
9.48515e-07
9.48966e-07
9.48337e-07
9.48049e-07
9.46755e-07
9.46756e-07
9.46755e-07
9.48265e-07
9.48391e-07
9.48491e-07
9.49108e-07
9.48969e-07
9.48423e-07
9.4848e-07
9.48471e-07
9.48474e-07
9.48472e-07
9.48515e-07
9.49108e-07
9.48987e-07
9.49137e-07
9.49154e-07
9.49154e-07
9.49126e-07
9.40143e-07
9.39422e-07
9.39359e-07
9.39407e-07
9.40155e-07
9.40176e-07
9.40158e-07
9.39523e-07
9.39098e-07
9.37958e-07
9.37958e-07
9.37958e-07
9.39249e-07
9.39542e-07
9.40168e-07
9.39523e-07
9.39061e-07
9.37958e-07
9.3796e-07
9.37959e-07
9.3796e-07
9.37958e-07
9.39226e-07
9.39539e-07
9.40172e-07
9.40143e-07
9.39098e-07
9.37958e-07
9.37959e-07
9.37958e-07
9.37959e-07
9.37958e-07
9.37959e-07
9.37958e-07
9.39251e-07
9.39625e-07
9.40189e-07
9.39421e-07
9.37958e-07
9.3796e-07
9.37958e-07
9.3796e-07
9.37959e-07
9.3796e-07
9.37958e-07
9.3796e-07
9.37958e-07
9.39682e-07
9.40339e-07
9.39359e-07
9.37958e-07
9.37959e-07
9.37959e-07
9.37959e-07
9.37959e-07
9.37959e-07
9.37959e-07
9.37959e-07
9.37958e-07
9.39673e-07
9.40356e-07
9.39407e-07
9.37958e-07
9.3796e-07
9.37958e-07
9.3796e-07
9.37959e-07
9.3796e-07
9.37958e-07
9.3796e-07
9.37958e-07
9.39676e-07
9.40357e-07
9.40155e-07
9.39249e-07
9.37958e-07
9.37959e-07
9.37958e-07
9.37959e-07
9.37958e-07
9.37959e-07
9.37958e-07
9.39467e-07
9.39674e-07
9.40328e-07
9.40176e-07
9.39542e-07
9.39226e-07
9.37958e-07
9.3796e-07
9.37959e-07
9.3796e-07
9.37958e-07
9.39434e-07
9.39594e-07
9.39717e-07
9.40168e-07
9.39539e-07
9.39251e-07
9.37958e-07
9.37958e-07
9.37958e-07
9.39467e-07
9.39594e-07
9.39693e-07
9.4031e-07
9.40171e-07
9.39625e-07
9.39682e-07
9.39673e-07
9.39676e-07
9.39674e-07
9.39717e-07
9.4031e-07
9.40189e-07
9.40339e-07
9.40356e-07
9.40356e-07
9.40328e-07
9.31345e-07
9.30624e-07
9.30562e-07
9.3061e-07
9.31357e-07
9.31378e-07
9.3136e-07
9.30725e-07
9.303e-07
9.2916e-07
9.2916e-07
9.2916e-07
9.30451e-07
9.30744e-07
9.3137e-07
9.30725e-07
9.30264e-07
9.2916e-07
9.29162e-07
9.2916e-07
9.29162e-07
9.2916e-07
9.30428e-07
9.30741e-07
9.31374e-07
9.31345e-07
9.303e-07
9.2916e-07
9.29161e-07
9.2916e-07
9.29161e-07
9.2916e-07
9.29161e-07
9.2916e-07
9.30454e-07
9.30828e-07
9.31391e-07
9.30624e-07
9.2916e-07
9.29162e-07
9.2916e-07
9.29162e-07
9.29161e-07
9.29162e-07
9.2916e-07
9.29162e-07
9.2916e-07
9.30884e-07
9.31541e-07
9.30561e-07
9.2916e-07
9.29161e-07
9.29161e-07
9.29161e-07
9.29161e-07
9.29161e-07
9.29161e-07
9.29161e-07
9.2916e-07
9.30875e-07
9.31558e-07
9.3061e-07
9.2916e-07
9.29162e-07
9.2916e-07
9.29162e-07
9.29161e-07
9.29162e-07
9.2916e-07
9.29162e-07
9.2916e-07
9.30878e-07
9.31559e-07
9.31357e-07
9.30451e-07
9.2916e-07
9.29161e-07
9.2916e-07
9.29161e-07
9.2916e-07
9.29161e-07
9.2916e-07
9.30669e-07
9.30876e-07
9.31531e-07
9.31378e-07
9.30744e-07
9.30428e-07
9.2916e-07
9.29162e-07
9.29161e-07
9.29162e-07
9.2916e-07
9.30636e-07
9.30796e-07
9.30919e-07
9.3137e-07
9.30741e-07
9.30454e-07
9.2916e-07
9.2916e-07
9.2916e-07
9.30669e-07
9.30796e-07
9.30895e-07
9.31512e-07
9.31374e-07
9.30828e-07
9.30884e-07
9.30875e-07
9.30878e-07
9.30876e-07
9.30919e-07
9.31512e-07
9.31391e-07
9.31541e-07
9.31558e-07
9.31559e-07
9.31531e-07
9.22547e-07
9.21826e-07
9.21764e-07
9.21812e-07
9.22559e-07
9.2258e-07
9.22562e-07
9.21927e-07
9.21502e-07
9.20362e-07
9.20362e-07
9.20362e-07
9.21653e-07
9.21946e-07
9.22573e-07
9.21927e-07
9.21466e-07
9.20362e-07
9.20364e-07
9.20363e-07
9.20364e-07
9.20362e-07
9.2163e-07
9.21943e-07
9.22576e-07
9.22547e-07
9.21503e-07
9.20362e-07
9.20363e-07
9.20362e-07
9.20363e-07
9.20362e-07
9.20363e-07
9.20362e-07
9.21656e-07
9.2203e-07
9.22593e-07
9.21826e-07
9.20362e-07
9.20364e-07
9.20362e-07
9.20364e-07
9.20363e-07
9.20364e-07
9.20362e-07
9.20364e-07
9.20362e-07
9.22086e-07
9.22743e-07
9.21764e-07
9.20362e-07
9.20363e-07
9.20363e-07
9.20363e-07
9.20363e-07
9.20363e-07
9.20363e-07
9.20363e-07
9.20362e-07
9.22078e-07
9.2276e-07
9.21812e-07
9.20362e-07
9.20364e-07
9.20362e-07
9.20364e-07
9.20363e-07
9.20364e-07
9.20362e-07
9.20364e-07
9.20362e-07
9.2208e-07
9.22761e-07
9.22559e-07
9.21653e-07
9.20362e-07
9.20363e-07
9.20362e-07
9.20363e-07
9.20362e-07
9.20363e-07
9.20362e-07
9.21871e-07
9.22078e-07
9.22733e-07
9.2258e-07
9.21946e-07
9.2163e-07
9.20362e-07
9.20364e-07
9.20363e-07
9.20364e-07
9.20362e-07
9.21838e-07
9.21998e-07
9.22122e-07
9.22573e-07
9.21944e-07
9.21656e-07
9.20362e-07
9.20362e-07
9.20362e-07
9.21871e-07
9.21998e-07
9.22097e-07
9.22714e-07
9.22576e-07
9.2203e-07
9.22086e-07
9.22078e-07
9.2208e-07
9.22078e-07
9.22122e-07
9.22714e-07
9.22593e-07
9.22743e-07
9.22761e-07
9.22761e-07
9.22733e-07
9.13749e-07
9.13028e-07
9.12966e-07
9.13014e-07
9.13761e-07
9.13782e-07
9.13764e-07
9.13129e-07
9.12705e-07
9.11564e-07
9.11565e-07
9.11564e-07
9.12856e-07
9.13148e-07
9.13775e-07
9.13129e-07
9.12668e-07
9.11564e-07
9.11566e-07
9.11565e-07
9.11566e-07
9.11564e-07
9.12833e-07
9.13146e-07
9.13778e-07
9.13749e-07
9.12705e-07
9.11564e-07
9.11565e-07
9.11564e-07
9.11565e-07
9.11564e-07
9.11565e-07
9.11564e-07
9.12858e-07
9.13232e-07
9.13796e-07
9.13028e-07
9.11564e-07
9.11566e-07
9.11564e-07
9.11566e-07
9.11565e-07
9.11566e-07
9.11564e-07
9.11566e-07
9.11564e-07
9.13288e-07
9.13945e-07
9.12966e-07
9.11565e-07
9.11565e-07
9.11565e-07
9.11565e-07
9.11565e-07
9.11565e-07
9.11565e-07
9.11565e-07
9.11565e-07
9.1328e-07
9.13963e-07
9.13014e-07
9.11564e-07
9.11566e-07
9.11564e-07
9.11566e-07
9.11565e-07
9.11566e-07
9.11564e-07
9.11566e-07
9.11564e-07
9.13282e-07
9.13963e-07
9.13761e-07
9.12856e-07
9.11564e-07
9.11565e-07
9.11564e-07
9.11565e-07
9.11564e-07
9.11565e-07
9.11564e-07
9.13073e-07
9.1328e-07
9.13935e-07
9.13782e-07
9.13148e-07
9.12833e-07
9.11564e-07
9.11566e-07
9.11565e-07
9.11566e-07
9.11564e-07
9.1304e-07
9.132e-07
9.13324e-07
9.13775e-07
9.13146e-07
9.12858e-07
9.11564e-07
9.11565e-07
9.11564e-07
9.13073e-07
9.132e-07
9.13299e-07
9.13916e-07
9.13778e-07
9.13232e-07
9.13288e-07
9.1328e-07
9.13282e-07
9.1328e-07
9.13324e-07
9.13916e-07
9.13796e-07
9.13945e-07
9.13963e-07
9.13963e-07
9.13935e-07
9.04951e-07
9.0423e-07
9.04168e-07
9.04216e-07
9.04963e-07
9.04984e-07
9.04967e-07
9.04332e-07
9.03907e-07
9.02766e-07
9.02767e-07
9.02766e-07
9.04058e-07
9.0435e-07
9.04977e-07
9.04332e-07
9.0387e-07
9.02767e-07
9.02768e-07
9.02767e-07
9.02768e-07
9.02766e-07
9.04035e-07
9.04348e-07
9.0498e-07
9.04951e-07
9.03907e-07
9.02767e-07
9.02767e-07
9.02767e-07
9.02767e-07
9.02767e-07
9.02767e-07
9.02766e-07
9.0406e-07
9.04434e-07
9.04998e-07
9.0423e-07
9.02766e-07
9.02768e-07
9.02767e-07
9.02768e-07
9.02767e-07
9.02768e-07
9.02767e-07
9.02768e-07
9.02766e-07
9.04491e-07
9.05147e-07
9.04168e-07
9.02767e-07
9.02767e-07
9.02767e-07
9.02767e-07
9.02767e-07
9.02767e-07
9.02767e-07
9.02767e-07
9.02767e-07
9.04482e-07
9.05165e-07
9.04216e-07
9.02766e-07
9.02768e-07
9.02767e-07
9.02768e-07
9.02767e-07
9.02768e-07
9.02767e-07
9.02768e-07
9.02766e-07
9.04484e-07
9.05165e-07
9.04963e-07
9.04058e-07
9.02767e-07
9.02767e-07
9.02767e-07
9.02767e-07
9.02767e-07
9.02767e-07
9.02766e-07
9.04275e-07
9.04483e-07
9.05137e-07
9.04984e-07
9.0435e-07
9.04035e-07
9.02767e-07
9.02768e-07
9.02767e-07
9.02768e-07
9.02766e-07
9.04242e-07
9.04402e-07
9.04526e-07
9.04977e-07
9.04348e-07
9.0406e-07
9.02766e-07
9.02767e-07
9.02766e-07
9.04275e-07
9.04402e-07
9.04501e-07
9.05119e-07
9.0498e-07
9.04434e-07
9.04491e-07
9.04482e-07
9.04484e-07
9.04483e-07
9.04526e-07
9.05118e-07
9.04998e-07
9.05147e-07
9.05165e-07
9.05165e-07
9.05137e-07
8.96154e-07
8.95432e-07
8.9537e-07
8.95418e-07
8.96166e-07
8.96186e-07
8.96169e-07
8.95534e-07
8.95109e-07
8.93968e-07
8.93969e-07
8.93968e-07
8.9526e-07
8.95553e-07
8.96179e-07
8.95534e-07
8.95072e-07
8.93969e-07
8.9397e-07
8.93969e-07
8.9397e-07
8.93969e-07
8.95237e-07
8.9555e-07
8.96182e-07
8.96154e-07
8.95109e-07
8.93969e-07
8.93969e-07
8.93969e-07
8.93969e-07
8.93969e-07
8.93969e-07
8.93969e-07
8.95262e-07
8.95636e-07
8.962e-07
8.95432e-07
8.93968e-07
8.9397e-07
8.93969e-07
8.9397e-07
8.93969e-07
8.9397e-07
8.93969e-07
8.9397e-07
8.93968e-07
8.95693e-07
8.96349e-07
8.9537e-07
8.93969e-07
8.93969e-07
8.93969e-07
8.93969e-07
8.93969e-07
8.93969e-07
8.93969e-07
8.93969e-07
8.93969e-07
8.95684e-07
8.96367e-07
8.95418e-07
8.93968e-07
8.9397e-07
8.93969e-07
8.9397e-07
8.93969e-07
8.9397e-07
8.93969e-07
8.9397e-07
8.93968e-07
8.95687e-07
8.96367e-07
8.96165e-07
8.9526e-07
8.93969e-07
8.93969e-07
8.93969e-07
8.93969e-07
8.93969e-07
8.93969e-07
8.93969e-07
8.95478e-07
8.95685e-07
8.96339e-07
8.96186e-07
8.95552e-07
8.95237e-07
8.93969e-07
8.9397e-07
8.93969e-07
8.9397e-07
8.93969e-07
8.95445e-07
8.95604e-07
8.95728e-07
8.96179e-07
8.9555e-07
8.95262e-07
8.93968e-07
8.93969e-07
8.93968e-07
8.95478e-07
8.95604e-07
8.95704e-07
8.96321e-07
8.96182e-07
8.95636e-07
8.95693e-07
8.95684e-07
8.95686e-07
8.95685e-07
8.95728e-07
8.96321e-07
8.962e-07
8.96349e-07
8.96367e-07
8.96367e-07
8.96339e-07
8.87356e-07
8.86634e-07
8.86572e-07
8.8662e-07
8.87368e-07
8.87389e-07
8.87371e-07
8.86736e-07
8.86311e-07
8.8517e-07
8.85171e-07
8.8517e-07
8.86462e-07
8.86755e-07
8.87381e-07
8.86736e-07
8.86274e-07
8.85171e-07
8.85172e-07
8.85171e-07
8.85172e-07
8.85171e-07
8.86439e-07
8.86752e-07
8.87384e-07
8.87356e-07
8.86311e-07
8.85171e-07
8.85172e-07
8.85171e-07
8.85171e-07
8.85171e-07
8.85172e-07
8.85171e-07
8.86464e-07
8.86838e-07
8.87402e-07
8.86634e-07
8.8517e-07
8.85172e-07
8.85171e-07
8.85172e-07
8.85171e-07
8.85172e-07
8.85171e-07
8.85172e-07
8.8517e-07
8.86895e-07
8.87552e-07
8.86572e-07
8.85171e-07
8.85171e-07
8.85171e-07
8.85171e-07
8.85171e-07
8.85171e-07
8.85171e-07
8.85171e-07
8.85171e-07
8.86886e-07
8.87569e-07
8.8662e-07
8.8517e-07
8.85172e-07
8.85171e-07
8.85172e-07
8.85171e-07
8.85172e-07
8.85171e-07
8.85172e-07
8.8517e-07
8.86889e-07
8.87569e-07
8.87368e-07
8.86462e-07
8.85171e-07
8.85172e-07
8.85171e-07
8.85171e-07
8.85171e-07
8.85172e-07
8.85171e-07
8.8668e-07
8.86887e-07
8.87541e-07
8.87389e-07
8.86755e-07
8.86439e-07
8.85171e-07
8.85172e-07
8.85171e-07
8.85172e-07
8.85171e-07
8.86647e-07
8.86807e-07
8.8693e-07
8.87381e-07
8.86752e-07
8.86464e-07
8.8517e-07
8.85171e-07
8.8517e-07
8.8668e-07
8.86807e-07
8.86906e-07
8.87523e-07
8.87384e-07
8.86838e-07
8.86895e-07
8.86886e-07
8.86889e-07
8.86887e-07
8.8693e-07
8.87523e-07
8.87402e-07
8.87552e-07
8.87569e-07
8.87569e-07
8.87541e-07
8.78558e-07
8.77837e-07
8.77774e-07
8.77822e-07
8.7857e-07
8.78591e-07
8.78573e-07
8.77938e-07
8.77513e-07
8.76372e-07
8.76373e-07
8.76372e-07
8.77664e-07
8.77957e-07
8.78583e-07
8.77938e-07
8.77476e-07
8.76373e-07
8.76374e-07
8.76373e-07
8.76374e-07
8.76373e-07
8.77641e-07
8.77954e-07
8.78587e-07
8.78558e-07
8.77513e-07
8.76373e-07
8.76374e-07
8.76373e-07
8.76373e-07
8.76373e-07
8.76374e-07
8.76373e-07
8.77667e-07
8.7804e-07
8.78604e-07
8.77836e-07
8.76372e-07
8.76374e-07
8.76373e-07
8.76374e-07
8.76373e-07
8.76374e-07
8.76373e-07
8.76374e-07
8.76373e-07
8.78097e-07
8.78754e-07
8.77774e-07
8.76373e-07
8.76373e-07
8.76373e-07
8.76373e-07
8.76373e-07
8.76373e-07
8.76373e-07
8.76373e-07
8.76373e-07
8.78088e-07
8.78771e-07
8.77822e-07
8.76372e-07
8.76374e-07
8.76373e-07
8.76374e-07
8.76373e-07
8.76374e-07
8.76373e-07
8.76374e-07
8.76373e-07
8.78091e-07
8.78772e-07
8.7857e-07
8.77664e-07
8.76373e-07
8.76374e-07
8.76373e-07
8.76373e-07
8.76373e-07
8.76374e-07
8.76373e-07
8.77882e-07
8.78089e-07
8.78743e-07
8.78591e-07
8.77957e-07
8.77641e-07
8.76373e-07
8.76374e-07
8.76373e-07
8.76374e-07
8.76373e-07
8.77849e-07
8.78009e-07
8.78132e-07
8.78583e-07
8.77954e-07
8.77666e-07
8.76372e-07
8.76373e-07
8.76373e-07
8.77882e-07
8.78009e-07
8.78108e-07
8.78725e-07
8.78587e-07
8.7804e-07
8.78097e-07
8.78088e-07
8.78091e-07
8.78089e-07
8.78132e-07
8.78725e-07
8.78604e-07
8.78754e-07
8.78771e-07
8.78772e-07
8.78743e-07
8.6976e-07
8.69039e-07
8.68977e-07
8.69025e-07
8.69772e-07
8.69793e-07
8.69775e-07
8.6914e-07
8.68715e-07
8.67575e-07
8.67575e-07
8.67575e-07
8.68866e-07
8.69159e-07
8.69785e-07
8.6914e-07
8.68678e-07
8.67575e-07
8.67577e-07
8.67575e-07
8.67577e-07
8.67575e-07
8.68843e-07
8.69156e-07
8.69789e-07
8.6976e-07
8.68715e-07
8.67575e-07
8.67576e-07
8.67575e-07
8.67575e-07
8.67575e-07
8.67576e-07
8.67575e-07
8.68869e-07
8.69243e-07
8.69806e-07
8.69039e-07
8.67575e-07
8.67577e-07
8.67575e-07
8.67576e-07
8.67575e-07
8.67576e-07
8.67575e-07
8.67577e-07
8.67575e-07
8.69299e-07
8.69956e-07
8.68976e-07
8.67575e-07
8.67575e-07
8.67575e-07
8.67575e-07
8.67576e-07
8.67575e-07
8.67576e-07
8.67575e-07
8.67575e-07
8.6929e-07
8.69973e-07
8.69024e-07
8.67574e-07
8.67576e-07
8.67575e-07
8.67576e-07
8.67575e-07
8.67576e-07
8.67575e-07