/*--------------------------------*- C++ -*----------------------------------*\
| =========                 |                                                 |
| \\      /  F ield         | OpenFOAM: The Open Source CFD Toolbox           |
|  \\    /   O peration     | Version:  v2012                                 |
|   \\  /    A nd           | Website:  www.openfoam.com                      |
|    \\/     M anipulation  |                                                 |
\*---------------------------------------------------------------------------*/
FoamFile
{
    version     2.0;
    format      ascii;
    class       volScalarField;
    location    "17";
    object      p;
}
// * * * * * * * * * * * * * * * * * * * * * * * * * * * * * * * * * * * * * //

dimensions      [0 2 -2 0 0 0 0];


internalField   nonuniform List<scalar> 
292667
(
1.67675e-06
1.66393e-06
1.66279e-06
1.66291e-06
1.66454e-06
1.67778e-06
1.66419e-06
1.66014e-06
1.65784e-06
1.65691e-06
1.65704e-06
1.65827e-06
1.66097e-06
1.66545e-06
1.66418e-06
1.65897e-06
1.65586e-06
1.65416e-06
1.65345e-06
1.65355e-06
1.65448e-06
1.65647e-06
1.66004e-06
1.66582e-06
1.67675e-06
1.66014e-06
1.65586e-06
1.65338e-06
1.65199e-06
1.6514e-06
1.65148e-06
1.65226e-06
1.65387e-06
1.65671e-06
1.6616e-06
1.67738e-06
1.66393e-06
1.65784e-06
1.65416e-06
1.65199e-06
1.65076e-06
1.65023e-06
1.6503e-06
1.651e-06
1.65243e-06
1.6549e-06
1.65912e-06
1.66939e-06
1.66279e-06
1.65691e-06
1.65345e-06
1.6514e-06
1.65023e-06
1.64972e-06
1.64979e-06
1.65045e-06
1.65181e-06
1.65415e-06
1.65812e-06
1.66687e-06
1.66291e-06
1.65704e-06
1.65355e-06
1.65148e-06
1.6503e-06
1.64979e-06
1.64986e-06
1.65053e-06
1.6519e-06
1.65425e-06
1.65825e-06
1.6672e-06
1.66454e-06
1.65827e-06
1.65448e-06
1.65226e-06
1.651e-06
1.65045e-06
1.65053e-06
1.65124e-06
1.65271e-06
1.65524e-06
1.65959e-06
1.66985e-06
1.67777e-06
1.66096e-06
1.65647e-06
1.65387e-06
1.65243e-06
1.65181e-06
1.6519e-06
1.65271e-06
1.65439e-06
1.65738e-06
1.66246e-06
1.67768e-06
1.66545e-06
1.66004e-06
1.65671e-06
1.6549e-06
1.65415e-06
1.65425e-06
1.65524e-06
1.65737e-06
1.66119e-06
1.67026e-06
1.66582e-06
1.6616e-06
1.65912e-06
1.65812e-06
1.65825e-06
1.65959e-06
1.66246e-06
1.67026e-06
1.67738e-06
1.66939e-06
1.66687e-06
1.66719e-06
1.66985e-06
1.67768e-06
1.63974e-06
1.63821e-06
1.63818e-06
1.63821e-06
1.63955e-06
1.63956e-06
1.63982e-06
1.63857e-06
1.63806e-06
1.63584e-06
1.6358e-06
1.63583e-06
1.63811e-06
1.63843e-06
1.63967e-06
1.63856e-06
1.63805e-06
1.63593e-06
1.63578e-06
1.6358e-06
1.63577e-06
1.63593e-06
1.63804e-06
1.63842e-06
1.63964e-06
1.63974e-06
1.63806e-06
1.63593e-06
1.63581e-06
1.63582e-06
1.63581e-06
1.63582e-06
1.63581e-06
1.63593e-06
1.63804e-06
1.63847e-06
1.63983e-06
1.63821e-06
1.63583e-06
1.63578e-06
1.63582e-06
1.63579e-06
1.63578e-06
1.63579e-06
1.63582e-06
1.63578e-06
1.63584e-06
1.63843e-06
1.63972e-06
1.63818e-06
1.6358e-06
1.6358e-06
1.63581e-06
1.63578e-06
1.63577e-06
1.63578e-06
1.63581e-06
1.6358e-06
1.6358e-06
1.63836e-06
1.63942e-06
1.63821e-06
1.63583e-06
1.63577e-06
1.63581e-06
1.63579e-06
1.63578e-06
1.63579e-06
1.63581e-06
1.63577e-06
1.63583e-06
1.63839e-06
1.63951e-06
1.63955e-06
1.63811e-06
1.63593e-06
1.63581e-06
1.63581e-06
1.63581e-06
1.63581e-06
1.63581e-06
1.63593e-06
1.63802e-06
1.63847e-06
1.63976e-06
1.63956e-06
1.63843e-06
1.63804e-06
1.63592e-06
1.63577e-06
1.6358e-06
1.63577e-06
1.63593e-06
1.63798e-06
1.63834e-06
1.63853e-06
1.63967e-06
1.63842e-06
1.63804e-06
1.63583e-06
1.6358e-06
1.63583e-06
1.63802e-06
1.63834e-06
1.63863e-06
1.63984e-06
1.63964e-06
1.63847e-06
1.63843e-06
1.63835e-06
1.63839e-06
1.63847e-06
1.63853e-06
1.63984e-06
1.63983e-06
1.63972e-06
1.63942e-06
1.63951e-06
1.63976e-06
1.62569e-06
1.62428e-06
1.6242e-06
1.62424e-06
1.62556e-06
1.6257e-06
1.62578e-06
1.6245e-06
1.62395e-06
1.62171e-06
1.6217e-06
1.62171e-06
1.62403e-06
1.62441e-06
1.62561e-06
1.62449e-06
1.62396e-06
1.62178e-06
1.62175e-06
1.62178e-06
1.62175e-06
1.62178e-06
1.62398e-06
1.62438e-06
1.62562e-06
1.62569e-06
1.62395e-06
1.62178e-06
1.62177e-06
1.62184e-06
1.62185e-06
1.62184e-06
1.62177e-06
1.62178e-06
1.62397e-06
1.62446e-06
1.62576e-06
1.62427e-06
1.62171e-06
1.62175e-06
1.62184e-06
1.62187e-06
1.62188e-06
1.62187e-06
1.62184e-06
1.62175e-06
1.62171e-06
1.6244e-06
1.62578e-06
1.62419e-06
1.6217e-06
1.62178e-06
1.62185e-06
1.62188e-06
1.62189e-06
1.62188e-06
1.62185e-06
1.62178e-06
1.6217e-06
1.62434e-06
1.62572e-06
1.62424e-06
1.62171e-06
1.62175e-06
1.62184e-06
1.62187e-06
1.62188e-06
1.62187e-06
1.62184e-06
1.62175e-06
1.62171e-06
1.62437e-06
1.62573e-06
1.62555e-06
1.62403e-06
1.62178e-06
1.62177e-06
1.62184e-06
1.62185e-06
1.62184e-06
1.62177e-06
1.62178e-06
1.62401e-06
1.62444e-06
1.62582e-06
1.6257e-06
1.62441e-06
1.62398e-06
1.62178e-06
1.62175e-06
1.62178e-06
1.62175e-06
1.62178e-06
1.62398e-06
1.6243e-06
1.62457e-06
1.62561e-06
1.62438e-06
1.62397e-06
1.62171e-06
1.6217e-06
1.62171e-06
1.62401e-06
1.6243e-06
1.62455e-06
1.62582e-06
1.62561e-06
1.62446e-06
1.6244e-06
1.62434e-06
1.62437e-06
1.62444e-06
1.62457e-06
1.62582e-06
1.62576e-06
1.62578e-06
1.62572e-06
1.62573e-06
1.62582e-06
1.61183e-06
1.61038e-06
1.61029e-06
1.61034e-06
1.61168e-06
1.61183e-06
1.61191e-06
1.6106e-06
1.61e-06
1.60774e-06
1.60774e-06
1.60774e-06
1.61007e-06
1.61052e-06
1.61174e-06
1.6106e-06
1.60998e-06
1.60778e-06
1.60778e-06
1.60781e-06
1.60778e-06
1.60778e-06
1.61004e-06
1.6105e-06
1.61175e-06
1.61183e-06
1.61e-06
1.60778e-06
1.6078e-06
1.60785e-06
1.60786e-06
1.60785e-06
1.6078e-06
1.60778e-06
1.61004e-06
1.61059e-06
1.61189e-06
1.61038e-06
1.60774e-06
1.60778e-06
1.60785e-06
1.60788e-06
1.60789e-06
1.60788e-06
1.60785e-06
1.60778e-06
1.60774e-06
1.61051e-06
1.61191e-06
1.61029e-06
1.60774e-06
1.60781e-06
1.60786e-06
1.60789e-06
1.6079e-06
1.60789e-06
1.60786e-06
1.60781e-06
1.60774e-06
1.61044e-06
1.61185e-06
1.61034e-06
1.60774e-06
1.60778e-06
1.60785e-06
1.60788e-06
1.60789e-06
1.60788e-06
1.60785e-06
1.60778e-06
1.60774e-06
1.61047e-06
1.61185e-06
1.61168e-06
1.61007e-06
1.60778e-06
1.6078e-06
1.60785e-06
1.60786e-06
1.60785e-06
1.6078e-06
1.60778e-06
1.61011e-06
1.61057e-06
1.61195e-06
1.61183e-06
1.61052e-06
1.61004e-06
1.60778e-06
1.60778e-06
1.60781e-06
1.60778e-06
1.60778e-06
1.61007e-06
1.61042e-06
1.61069e-06
1.61174e-06
1.6105e-06
1.61004e-06
1.60774e-06
1.60774e-06
1.60774e-06
1.61011e-06
1.61042e-06
1.61067e-06
1.61196e-06
1.61175e-06
1.61059e-06
1.61051e-06
1.61044e-06
1.61047e-06
1.61057e-06
1.61069e-06
1.61196e-06
1.61189e-06
1.61191e-06
1.61184e-06
1.61185e-06
1.61195e-06
1.59794e-06
1.59649e-06
1.5964e-06
1.59645e-06
1.59779e-06
1.59795e-06
1.59803e-06
1.5967e-06
1.59608e-06
1.59382e-06
1.59382e-06
1.59382e-06
1.59616e-06
1.59663e-06
1.59786e-06
1.5967e-06
1.59606e-06
1.59384e-06
1.59385e-06
1.59386e-06
1.59385e-06
1.59384e-06
1.59612e-06
1.59661e-06
1.59787e-06
1.59794e-06
1.59608e-06
1.59384e-06
1.59386e-06
1.59389e-06
1.59389e-06
1.59389e-06
1.59386e-06
1.59384e-06
1.59613e-06
1.5967e-06
1.59801e-06
1.59649e-06
1.59382e-06
1.59385e-06
1.59389e-06
1.59391e-06
1.59392e-06
1.59391e-06
1.59389e-06
1.59385e-06
1.59382e-06
1.59661e-06
1.59803e-06
1.5964e-06
1.59382e-06
1.59386e-06
1.59389e-06
1.59392e-06
1.59393e-06
1.59392e-06
1.59389e-06
1.59386e-06
1.59382e-06
1.59655e-06
1.59796e-06
1.59645e-06
1.59382e-06
1.59385e-06
1.59389e-06
1.59391e-06
1.59392e-06
1.59391e-06
1.59389e-06
1.59385e-06
1.59382e-06
1.59658e-06
1.59797e-06
1.59779e-06
1.59616e-06
1.59384e-06
1.59386e-06
1.59389e-06
1.59389e-06
1.59389e-06
1.59386e-06
1.59384e-06
1.59621e-06
1.59668e-06
1.59806e-06
1.59795e-06
1.59663e-06
1.59612e-06
1.59384e-06
1.59385e-06
1.59386e-06
1.59385e-06
1.59384e-06
1.59617e-06
1.59653e-06
1.59681e-06
1.59786e-06
1.59661e-06
1.59613e-06
1.59382e-06
1.59382e-06
1.59382e-06
1.59621e-06
1.59653e-06
1.59678e-06
1.59808e-06
1.59787e-06
1.5967e-06
1.59661e-06
1.59655e-06
1.59658e-06
1.59668e-06
1.59681e-06
1.59808e-06
1.59801e-06
1.59803e-06
1.59796e-06
1.59797e-06
1.59806e-06
1.58405e-06
1.5826e-06
1.58251e-06
1.58256e-06
1.58391e-06
1.58406e-06
1.58414e-06
1.58281e-06
1.58218e-06
1.57992e-06
1.57992e-06
1.57992e-06
1.58226e-06
1.58273e-06
1.58397e-06
1.58281e-06
1.58216e-06
1.57993e-06
1.57993e-06
1.57994e-06
1.57993e-06
1.57993e-06
1.58222e-06
1.58272e-06
1.58398e-06
1.58405e-06
1.58218e-06
1.57993e-06
1.57994e-06
1.57995e-06
1.57996e-06
1.57995e-06
1.57994e-06
1.57993e-06
1.58224e-06
1.58281e-06
1.58412e-06
1.5826e-06
1.57992e-06
1.57993e-06
1.57995e-06
1.57997e-06
1.57997e-06
1.57997e-06
1.57995e-06
1.57993e-06
1.57992e-06
1.58272e-06
1.58414e-06
1.58251e-06
1.57992e-06
1.57994e-06
1.57996e-06
1.57997e-06
1.57998e-06
1.57997e-06
1.57996e-06
1.57994e-06
1.57992e-06
1.58266e-06
1.58407e-06
1.58256e-06
1.57992e-06
1.57993e-06
1.57995e-06
1.57997e-06
1.57997e-06
1.57997e-06
1.57995e-06
1.57993e-06
1.57992e-06
1.58269e-06
1.58408e-06
1.58391e-06
1.58226e-06
1.57993e-06
1.57994e-06
1.57995e-06
1.57996e-06
1.57995e-06
1.57994e-06
1.57993e-06
1.58232e-06
1.58279e-06
1.58417e-06
1.58406e-06
1.58273e-06
1.58222e-06
1.57993e-06
1.57993e-06
1.57994e-06
1.57993e-06
1.57993e-06
1.58228e-06
1.58264e-06
1.58292e-06
1.58397e-06
1.58272e-06
1.58224e-06
1.57992e-06
1.57992e-06
1.57992e-06
1.58232e-06
1.58264e-06
1.58289e-06
1.58419e-06
1.58398e-06
1.58281e-06
1.58272e-06
1.58266e-06
1.58269e-06
1.58279e-06
1.58292e-06
1.58419e-06
1.58412e-06
1.58414e-06
1.58407e-06
1.58408e-06
1.58417e-06
1.57016e-06
1.56871e-06
1.56861e-06
1.56866e-06
1.57001e-06
1.57017e-06
1.57025e-06
1.56891e-06
1.56829e-06
1.56602e-06
1.56602e-06
1.56602e-06
1.56837e-06
1.56884e-06
1.57008e-06
1.56891e-06
1.56826e-06
1.56602e-06
1.56603e-06
1.56603e-06
1.56603e-06
1.56602e-06
1.56832e-06
1.56883e-06
1.57009e-06
1.57016e-06
1.56829e-06
1.56602e-06
1.56603e-06
1.56604e-06
1.56604e-06
1.56604e-06
1.56603e-06
1.56602e-06
1.56834e-06
1.56892e-06
1.57023e-06
1.56871e-06
1.56602e-06
1.56603e-06
1.56604e-06
1.56605e-06
1.56605e-06
1.56605e-06
1.56604e-06
1.56603e-06
1.56602e-06
1.56883e-06
1.57025e-06
1.56861e-06
1.56602e-06
1.56603e-06
1.56604e-06
1.56605e-06
1.56605e-06
1.56605e-06
1.56604e-06
1.56603e-06
1.56602e-06
1.56876e-06
1.57018e-06
1.56866e-06
1.56602e-06
1.56603e-06
1.56604e-06
1.56605e-06
1.56605e-06
1.56605e-06
1.56604e-06
1.56603e-06
1.56602e-06
1.56879e-06
1.57019e-06
1.57001e-06
1.56837e-06
1.56602e-06
1.56603e-06
1.56604e-06
1.56604e-06
1.56604e-06
1.56603e-06
1.56602e-06
1.56842e-06
1.5689e-06
1.57028e-06
1.57017e-06
1.56884e-06
1.56832e-06
1.56602e-06
1.56603e-06
1.56603e-06
1.56603e-06
1.56602e-06
1.56838e-06
1.56875e-06
1.56903e-06
1.57008e-06
1.56883e-06
1.56834e-06
1.56602e-06
1.56602e-06
1.56602e-06
1.56842e-06
1.56875e-06
1.569e-06
1.5703e-06
1.57009e-06
1.56892e-06
1.56883e-06
1.56876e-06
1.56879e-06
1.5689e-06
1.56903e-06
1.5703e-06
1.57023e-06
1.57025e-06
1.57018e-06
1.57019e-06
1.57028e-06
1.55627e-06
1.55482e-06
1.55472e-06
1.55477e-06
1.55612e-06
1.55628e-06
1.55636e-06
1.55502e-06
1.5544e-06
1.55212e-06
1.55212e-06
1.55212e-06
1.55447e-06
1.55495e-06
1.55619e-06
1.55502e-06
1.55437e-06
1.55213e-06
1.55213e-06
1.55213e-06
1.55213e-06
1.55213e-06
1.55443e-06
1.55493e-06
1.5562e-06
1.55627e-06
1.5544e-06
1.55213e-06
1.55213e-06
1.55213e-06
1.55214e-06
1.55213e-06
1.55213e-06
1.55213e-06
1.55445e-06
1.55503e-06
1.55634e-06
1.55482e-06
1.55212e-06
1.55213e-06
1.55213e-06
1.55214e-06
1.55214e-06
1.55214e-06
1.55213e-06
1.55213e-06
1.55212e-06
1.55494e-06
1.55635e-06
1.55472e-06
1.55212e-06
1.55213e-06
1.55214e-06
1.55214e-06
1.55214e-06
1.55214e-06
1.55214e-06
1.55213e-06
1.55212e-06
1.55487e-06
1.55629e-06
1.55477e-06
1.55212e-06
1.55213e-06
1.55213e-06
1.55214e-06
1.55214e-06
1.55214e-06
1.55213e-06
1.55213e-06
1.55212e-06
1.5549e-06
1.55629e-06
1.55612e-06
1.55447e-06
1.55213e-06
1.55213e-06
1.55213e-06
1.55214e-06
1.55213e-06
1.55213e-06
1.55213e-06
1.55453e-06
1.55501e-06
1.55639e-06
1.55628e-06
1.55495e-06
1.55443e-06
1.55213e-06
1.55213e-06
1.55213e-06
1.55213e-06
1.55213e-06
1.55449e-06
1.55485e-06
1.55514e-06
1.55619e-06
1.55493e-06
1.55445e-06
1.55212e-06
1.55212e-06
1.55212e-06
1.55453e-06
1.55485e-06
1.55511e-06
1.55641e-06
1.5562e-06
1.55503e-06
1.55494e-06
1.55487e-06
1.5549e-06
1.55501e-06
1.55514e-06
1.5564e-06
1.55634e-06
1.55635e-06
1.55629e-06
1.55629e-06
1.55639e-06
1.54238e-06
1.54092e-06
1.54083e-06
1.54088e-06
1.54223e-06
1.54239e-06
1.54246e-06
1.54113e-06
1.5405e-06
1.53823e-06
1.53823e-06
1.53823e-06
1.54058e-06
1.54105e-06
1.54229e-06
1.54113e-06
1.54047e-06
1.53823e-06
1.53823e-06
1.53823e-06
1.53823e-06
1.53823e-06
1.54053e-06
1.54104e-06
1.5423e-06
1.54238e-06
1.5405e-06
1.53823e-06
1.53823e-06
1.53824e-06
1.53824e-06
1.53824e-06
1.53823e-06
1.53823e-06
1.54055e-06
1.54114e-06
1.54245e-06
1.54092e-06
1.53823e-06
1.53823e-06
1.53824e-06
1.53824e-06
1.53824e-06
1.53824e-06
1.53824e-06
1.53823e-06
1.53823e-06
1.54105e-06
1.54246e-06
1.54083e-06
1.53823e-06
1.53823e-06
1.53824e-06
1.53824e-06
1.53824e-06
1.53824e-06
1.53824e-06
1.53823e-06
1.53823e-06
1.54098e-06
1.5424e-06
1.54088e-06
1.53823e-06
1.53823e-06
1.53824e-06
1.53824e-06
1.53824e-06
1.53824e-06
1.53824e-06
1.53823e-06
1.53823e-06
1.54101e-06
1.5424e-06
1.54223e-06
1.54058e-06
1.53823e-06
1.53823e-06
1.53824e-06
1.53824e-06
1.53824e-06
1.53823e-06
1.53823e-06
1.54064e-06
1.54111e-06
1.5425e-06
1.54239e-06
1.54105e-06
1.54053e-06
1.53823e-06
1.53823e-06
1.53823e-06
1.53823e-06
1.53823e-06
1.5406e-06
1.54096e-06
1.54125e-06
1.54229e-06
1.54104e-06
1.54055e-06
1.53823e-06
1.53823e-06
1.53823e-06
1.54064e-06
1.54096e-06
1.54122e-06
1.54251e-06
1.5423e-06
1.54114e-06
1.54105e-06
1.54098e-06
1.54101e-06
1.54111e-06
1.54125e-06
1.54251e-06
1.54245e-06
1.54246e-06
1.5424e-06
1.5424e-06
1.5425e-06
1.52848e-06
1.52703e-06
1.52694e-06
1.52699e-06
1.52834e-06
1.52849e-06
1.52857e-06
1.52724e-06
1.52661e-06
1.52434e-06
1.52434e-06
1.52434e-06
1.52669e-06
1.52716e-06
1.5284e-06
1.52724e-06
1.52658e-06
1.52434e-06
1.52434e-06
1.52434e-06
1.52434e-06
1.52434e-06
1.52664e-06
1.52715e-06
1.52841e-06
1.52848e-06
1.52661e-06
1.52434e-06
1.52434e-06
1.52434e-06
1.52434e-06
1.52434e-06
1.52434e-06
1.52434e-06
1.52666e-06
1.52725e-06
1.52855e-06
1.52703e-06
1.52434e-06
1.52434e-06
1.52434e-06
1.52434e-06
1.52434e-06
1.52434e-06
1.52434e-06
1.52434e-06
1.52434e-06
1.52715e-06
1.52857e-06
1.52694e-06
1.52434e-06
1.52434e-06
1.52434e-06
1.52434e-06
1.52434e-06
1.52434e-06
1.52434e-06
1.52434e-06
1.52434e-06
1.52709e-06
1.5285e-06
1.52699e-06
1.52434e-06
1.52434e-06
1.52434e-06
1.52434e-06
1.52434e-06
1.52434e-06
1.52434e-06
1.52434e-06
1.52434e-06
1.52712e-06
1.52851e-06
1.52834e-06
1.52669e-06
1.52434e-06
1.52434e-06
1.52434e-06
1.52434e-06
1.52434e-06
1.52434e-06
1.52434e-06
1.52674e-06
1.52722e-06
1.52861e-06
1.52849e-06
1.52716e-06
1.52664e-06
1.52434e-06
1.52434e-06
1.52434e-06
1.52434e-06
1.52434e-06
1.5267e-06
1.52707e-06
1.52736e-06
1.5284e-06
1.52715e-06
1.52666e-06
1.52434e-06
1.52434e-06
1.52434e-06
1.52674e-06
1.52707e-06
1.52732e-06
1.52862e-06
1.52841e-06
1.52725e-06
1.52715e-06
1.52709e-06
1.52712e-06
1.52722e-06
1.52736e-06
1.52862e-06
1.52855e-06
1.52857e-06
1.5285e-06
1.52851e-06
1.52861e-06
1.51459e-06
1.51314e-06
1.51304e-06
1.51309e-06
1.51444e-06
1.5146e-06
1.51468e-06
1.51334e-06
1.51272e-06
1.51044e-06
1.51044e-06
1.51044e-06
1.5128e-06
1.51327e-06
1.51451e-06
1.51334e-06
1.51269e-06
1.51044e-06
1.51044e-06
1.51044e-06
1.51044e-06
1.51044e-06
1.51275e-06
1.51326e-06
1.51452e-06
1.51459e-06
1.51272e-06
1.51044e-06
1.51044e-06
1.51044e-06
1.51044e-06
1.51044e-06
1.51044e-06
1.51044e-06
1.51277e-06
1.51335e-06
1.51466e-06
1.51314e-06
1.51044e-06
1.51044e-06
1.51044e-06
1.51045e-06
1.51045e-06
1.51045e-06
1.51044e-06
1.51044e-06
1.51044e-06
1.51326e-06
1.51468e-06
1.51304e-06
1.51044e-06
1.51044e-06
1.51044e-06
1.51045e-06
1.51045e-06
1.51045e-06
1.51044e-06
1.51044e-06
1.51044e-06
1.51319e-06
1.51461e-06
1.51309e-06
1.51044e-06
1.51044e-06
1.51044e-06
1.51045e-06
1.51045e-06
1.51045e-06
1.51044e-06
1.51044e-06
1.51044e-06
1.51322e-06
1.51462e-06
1.51444e-06
1.51279e-06
1.51044e-06
1.51044e-06
1.51044e-06
1.51044e-06
1.51044e-06
1.51044e-06
1.51044e-06
1.51285e-06
1.51333e-06
1.51471e-06
1.5146e-06
1.51327e-06
1.51275e-06
1.51044e-06
1.51044e-06
1.51044e-06
1.51044e-06
1.51044e-06
1.51281e-06
1.51318e-06
1.51346e-06
1.51451e-06
1.51326e-06
1.51277e-06
1.51044e-06
1.51044e-06
1.51044e-06
1.51285e-06
1.51318e-06
1.51343e-06
1.51473e-06
1.51452e-06
1.51335e-06
1.51326e-06
1.51319e-06
1.51322e-06
1.51333e-06
1.51346e-06
1.51473e-06
1.51466e-06
1.51468e-06
1.51461e-06
1.51462e-06
1.51471e-06
1.5007e-06
1.49924e-06
1.49915e-06
1.4992e-06
1.50055e-06
1.50071e-06
1.50079e-06
1.49945e-06
1.49882e-06
1.49655e-06
1.49655e-06
1.49655e-06
1.4989e-06
1.49938e-06
1.50062e-06
1.49945e-06
1.49879e-06
1.49655e-06
1.49655e-06
1.49655e-06
1.49655e-06
1.49655e-06
1.49885e-06
1.49936e-06
1.50063e-06
1.5007e-06
1.49882e-06
1.49655e-06
1.49655e-06
1.49655e-06
1.49655e-06
1.49655e-06
1.49655e-06
1.49655e-06
1.49887e-06
1.49946e-06
1.50077e-06
1.49924e-06
1.49655e-06
1.49655e-06
1.49655e-06
1.49655e-06
1.49655e-06
1.49655e-06
1.49655e-06
1.49655e-06
1.49655e-06
1.49937e-06
1.50078e-06
1.49915e-06
1.49655e-06
1.49655e-06
1.49655e-06
1.49655e-06
1.49655e-06
1.49655e-06
1.49655e-06
1.49655e-06
1.49655e-06
1.4993e-06
1.50072e-06
1.4992e-06
1.49655e-06
1.49655e-06
1.49655e-06
1.49655e-06
1.49655e-06
1.49655e-06
1.49655e-06
1.49655e-06
1.49655e-06
1.49933e-06
1.50072e-06
1.50055e-06
1.4989e-06
1.49655e-06
1.49655e-06
1.49655e-06
1.49655e-06
1.49655e-06
1.49655e-06
1.49655e-06
1.49896e-06
1.49944e-06
1.50082e-06
1.50071e-06
1.49938e-06
1.49885e-06
1.49655e-06
1.49655e-06
1.49655e-06
1.49655e-06
1.49655e-06
1.49892e-06
1.49928e-06
1.49957e-06
1.50062e-06
1.49936e-06
1.49887e-06
1.49655e-06
1.49655e-06
1.49655e-06
1.49896e-06
1.49928e-06
1.49954e-06
1.50083e-06
1.50063e-06
1.49946e-06
1.49937e-06
1.4993e-06
1.49933e-06
1.49944e-06
1.49957e-06
1.50083e-06
1.50077e-06
1.50078e-06
1.50072e-06
1.50072e-06
1.50082e-06
1.48681e-06
1.48535e-06
1.48526e-06
1.48531e-06
1.48666e-06
1.48682e-06
1.48689e-06
1.48556e-06
1.48493e-06
1.48266e-06
1.48266e-06
1.48266e-06
1.48501e-06
1.48548e-06
1.48672e-06
1.48556e-06
1.4849e-06
1.48266e-06
1.48266e-06
1.48266e-06
1.48266e-06
1.48266e-06
1.48496e-06
1.48547e-06
1.48673e-06
1.48681e-06
1.48493e-06
1.48266e-06
1.48266e-06
1.48266e-06
1.48266e-06
1.48266e-06
1.48266e-06
1.48266e-06
1.48498e-06
1.48557e-06
1.48687e-06
1.48535e-06
1.48266e-06
1.48266e-06
1.48266e-06
1.48266e-06
1.48266e-06
1.48266e-06
1.48266e-06
1.48266e-06
1.48266e-06
1.48547e-06
1.48689e-06
1.48526e-06
1.48266e-06
1.48266e-06
1.48266e-06
1.48266e-06
1.48266e-06
1.48266e-06
1.48266e-06
1.48266e-06
1.48266e-06
1.48541e-06
1.48683e-06
1.48531e-06
1.48266e-06
1.48266e-06
1.48266e-06
1.48266e-06
1.48266e-06
1.48266e-06
1.48266e-06
1.48266e-06
1.48266e-06
1.48544e-06
1.48683e-06
1.48666e-06
1.48501e-06
1.48266e-06
1.48266e-06
1.48266e-06
1.48266e-06
1.48266e-06
1.48266e-06
1.48266e-06
1.48506e-06
1.48554e-06
1.48693e-06
1.48682e-06
1.48548e-06
1.48496e-06
1.48266e-06
1.48266e-06
1.48266e-06
1.48266e-06
1.48266e-06
1.48502e-06
1.48539e-06
1.48568e-06
1.48672e-06
1.48547e-06
1.48498e-06
1.48266e-06
1.48266e-06
1.48266e-06
1.48506e-06
1.48539e-06
1.48564e-06
1.48694e-06
1.48673e-06
1.48557e-06
1.48547e-06
1.48541e-06
1.48544e-06
1.48554e-06
1.48568e-06
1.48694e-06
1.48687e-06
1.48689e-06
1.48683e-06
1.48683e-06
1.48693e-06
1.47291e-06
1.47146e-06
1.47136e-06
1.47142e-06
1.47277e-06
1.47292e-06
1.473e-06
1.47166e-06
1.47104e-06
1.46876e-06
1.46876e-06
1.46876e-06
1.47112e-06
1.47159e-06
1.47283e-06
1.47167e-06
1.47101e-06
1.46876e-06
1.46876e-06
1.46876e-06
1.46876e-06
1.46876e-06
1.47107e-06
1.47158e-06
1.47284e-06
1.47291e-06
1.47104e-06
1.46876e-06
1.46876e-06
1.46876e-06
1.46876e-06
1.46876e-06
1.46876e-06
1.46876e-06
1.47109e-06
1.47167e-06
1.47298e-06
1.47146e-06
1.46876e-06
1.46876e-06
1.46876e-06
1.46876e-06
1.46876e-06
1.46876e-06
1.46876e-06
1.46876e-06
1.46876e-06
1.47158e-06
1.473e-06
1.47136e-06
1.46876e-06
1.46876e-06
1.46876e-06
1.46876e-06
1.46876e-06
1.46876e-06
1.46876e-06
1.46876e-06
1.46876e-06
1.47152e-06
1.47293e-06
1.47142e-06
1.46876e-06
1.46876e-06
1.46876e-06
1.46876e-06
1.46876e-06
1.46876e-06
1.46876e-06
1.46876e-06
1.46876e-06
1.47155e-06
1.47294e-06
1.47277e-06
1.47112e-06
1.46876e-06
1.46876e-06
1.46876e-06
1.46876e-06
1.46876e-06
1.46876e-06
1.46876e-06
1.47117e-06
1.47165e-06
1.47303e-06
1.47292e-06
1.47159e-06
1.47107e-06
1.46876e-06
1.46876e-06
1.46876e-06
1.46876e-06
1.46876e-06
1.47113e-06
1.4715e-06
1.47179e-06
1.47283e-06
1.47158e-06
1.47109e-06
1.46876e-06
1.46876e-06
1.46876e-06
1.47117e-06
1.4715e-06
1.47175e-06
1.47305e-06
1.47284e-06
1.47168e-06
1.47158e-06
1.47152e-06
1.47155e-06
1.47165e-06
1.47179e-06
1.47305e-06
1.47298e-06
1.473e-06
1.47293e-06
1.47294e-06
1.47303e-06
1.45902e-06
1.45757e-06
1.45747e-06
1.45752e-06
1.45887e-06
1.45903e-06
1.45911e-06
1.45777e-06
1.45714e-06
1.45487e-06
1.45487e-06
1.45487e-06
1.45722e-06
1.4577e-06
1.45894e-06
1.45777e-06
1.45711e-06
1.45487e-06
1.45487e-06
1.45487e-06
1.45487e-06
1.45487e-06
1.45718e-06
1.45768e-06
1.45895e-06
1.45902e-06
1.45714e-06
1.45487e-06
1.45487e-06
1.45487e-06
1.45487e-06
1.45487e-06
1.45487e-06
1.45487e-06
1.4572e-06
1.45778e-06
1.45909e-06
1.45757e-06
1.45487e-06
1.45487e-06
1.45487e-06
1.45487e-06
1.45487e-06
1.45487e-06
1.45487e-06
1.45487e-06
1.45487e-06
1.45769e-06
1.45911e-06
1.45747e-06
1.45487e-06
1.45487e-06
1.45487e-06
1.45487e-06
1.45487e-06
1.45487e-06
1.45487e-06
1.45487e-06
1.45487e-06
1.45762e-06
1.45904e-06
1.45752e-06
1.45487e-06
1.45487e-06
1.45487e-06
1.45487e-06
1.45487e-06
1.45487e-06
1.45487e-06
1.45487e-06
1.45487e-06
1.45765e-06
1.45904e-06
1.45887e-06
1.45722e-06
1.45487e-06
1.45487e-06
1.45487e-06
1.45487e-06
1.45487e-06
1.45487e-06
1.45487e-06
1.45728e-06
1.45776e-06
1.45914e-06
1.45903e-06
1.4577e-06
1.45718e-06
1.45487e-06
1.45487e-06
1.45487e-06
1.45487e-06
1.45487e-06
1.45724e-06
1.45761e-06
1.45789e-06
1.45894e-06
1.45768e-06
1.4572e-06
1.45487e-06
1.45487e-06
1.45487e-06
1.45728e-06
1.45761e-06
1.45786e-06
1.45916e-06
1.45895e-06
1.45778e-06
1.45769e-06
1.45762e-06
1.45765e-06
1.45776e-06
1.45789e-06
1.45916e-06
1.45909e-06
1.45911e-06
1.45904e-06
1.45905e-06
1.45914e-06
1.44513e-06
1.44367e-06
1.44358e-06
1.44363e-06
1.44498e-06
1.44514e-06
1.44521e-06
1.44388e-06
1.44325e-06
1.44098e-06
1.44098e-06
1.44098e-06
1.44333e-06
1.4438e-06
1.44504e-06
1.44388e-06
1.44322e-06
1.44098e-06
1.44098e-06
1.44098e-06
1.44098e-06
1.44098e-06
1.44328e-06
1.44379e-06
1.44505e-06
1.44513e-06
1.44325e-06
1.44098e-06
1.44098e-06
1.44098e-06
1.44098e-06
1.44098e-06
1.44098e-06
1.44098e-06
1.4433e-06
1.44389e-06
1.4452e-06
1.44367e-06
1.44098e-06
1.44098e-06
1.44098e-06
1.44098e-06
1.44098e-06
1.44098e-06
1.44098e-06
1.44098e-06
1.44098e-06
1.4438e-06
1.44521e-06
1.44358e-06
1.44098e-06
1.44098e-06
1.44098e-06
1.44098e-06
1.44098e-06
1.44098e-06
1.44098e-06
1.44098e-06
1.44098e-06
1.44373e-06
1.44515e-06
1.44363e-06
1.44098e-06
1.44098e-06
1.44098e-06
1.44098e-06
1.44098e-06
1.44098e-06
1.44098e-06
1.44098e-06
1.44098e-06
1.44376e-06
1.44515e-06
1.44498e-06
1.44333e-06
1.44098e-06
1.44098e-06
1.44098e-06
1.44098e-06
1.44098e-06
1.44098e-06
1.44098e-06
1.44339e-06
1.44386e-06
1.44525e-06
1.44514e-06
1.4438e-06
1.44328e-06
1.44098e-06
1.44098e-06
1.44098e-06
1.44098e-06
1.44098e-06
1.44335e-06
1.44371e-06
1.444e-06
1.44504e-06
1.44379e-06
1.4433e-06
1.44098e-06
1.44098e-06
1.44098e-06
1.44339e-06
1.44371e-06
1.44397e-06
1.44526e-06
1.44505e-06
1.44389e-06
1.4438e-06
1.44373e-06
1.44376e-06
1.44386e-06
1.444e-06
1.44526e-06
1.4452e-06
1.44521e-06
1.44515e-06
1.44515e-06
1.44525e-06
1.43123e-06
1.42978e-06
1.42969e-06
1.42974e-06
1.43109e-06
1.43125e-06
1.43132e-06
1.42999e-06
1.42936e-06
1.42709e-06
1.42709e-06
1.42709e-06
1.42944e-06
1.42991e-06
1.43115e-06
1.42999e-06
1.42933e-06
1.42709e-06
1.42709e-06
1.42709e-06
1.42709e-06
1.42709e-06
1.42939e-06
1.4299e-06
1.43116e-06
1.43123e-06
1.42936e-06
1.42709e-06
1.42709e-06
1.42709e-06
1.42709e-06
1.42709e-06
1.42709e-06
1.42709e-06
1.42941e-06
1.43e-06
1.4313e-06
1.42978e-06
1.42709e-06
1.42709e-06
1.42709e-06
1.42709e-06
1.42709e-06
1.42709e-06
1.42709e-06
1.42709e-06
1.42709e-06
1.4299e-06
1.43132e-06
1.42969e-06
1.42709e-06
1.42709e-06
1.42709e-06
1.42709e-06
1.42709e-06
1.42709e-06
1.42709e-06
1.42709e-06
1.42709e-06
1.42984e-06
1.43125e-06
1.42974e-06
1.42709e-06
1.42709e-06
1.42709e-06
1.42709e-06
1.42709e-06
1.42709e-06
1.42709e-06
1.42709e-06
1.42709e-06
1.42987e-06
1.43126e-06
1.43109e-06
1.42944e-06
1.42709e-06
1.42709e-06
1.42709e-06
1.42709e-06
1.42709e-06
1.42709e-06
1.42709e-06
1.42949e-06
1.42997e-06
1.43136e-06
1.43125e-06
1.42991e-06
1.42939e-06
1.42709e-06
1.42709e-06
1.42709e-06
1.42709e-06
1.42709e-06
1.42945e-06
1.42982e-06
1.43011e-06
1.43115e-06
1.4299e-06
1.42941e-06
1.42709e-06
1.42709e-06
1.42709e-06
1.42949e-06
1.42982e-06
1.43007e-06
1.43137e-06
1.43116e-06
1.43e-06
1.4299e-06
1.42984e-06
1.42987e-06
1.42997e-06
1.43011e-06
1.43137e-06
1.4313e-06
1.43132e-06
1.43125e-06
1.43126e-06
1.43136e-06
1.41734e-06
1.41589e-06
1.41579e-06
1.41584e-06
1.41719e-06
1.41735e-06
1.41743e-06
1.41609e-06
1.41547e-06
1.41319e-06
1.41319e-06
1.41319e-06
1.41555e-06
1.41602e-06
1.41726e-06
1.41609e-06
1.41544e-06
1.41319e-06
1.41319e-06
1.41319e-06
1.41319e-06
1.41319e-06
1.4155e-06
1.41601e-06
1.41727e-06
1.41734e-06
1.41547e-06
1.41319e-06
1.41319e-06
1.41319e-06
1.41319e-06
1.41319e-06
1.41319e-06
1.41319e-06
1.41552e-06
1.4161e-06
1.41741e-06
1.41589e-06
1.41319e-06
1.41319e-06
1.41319e-06
1.41319e-06
1.41319e-06
1.41319e-06
1.41319e-06
1.41319e-06
1.41319e-06
1.41601e-06
1.41743e-06
1.41579e-06
1.41319e-06
1.41319e-06
1.41319e-06
1.41319e-06
1.41319e-06
1.41319e-06
1.41319e-06
1.41319e-06
1.41319e-06
1.41594e-06
1.41736e-06
1.41584e-06
1.41319e-06
1.41319e-06
1.41319e-06
1.41319e-06
1.41319e-06
1.41319e-06
1.41319e-06
1.41319e-06
1.41319e-06
1.41597e-06
1.41737e-06
1.41719e-06
1.41555e-06
1.41319e-06
1.41319e-06
1.41319e-06
1.41319e-06
1.41319e-06
1.41319e-06
1.41319e-06
1.4156e-06
1.41608e-06
1.41746e-06
1.41735e-06
1.41602e-06
1.4155e-06
1.41319e-06
1.41319e-06
1.41319e-06
1.41319e-06
1.41319e-06
1.41556e-06
1.41593e-06
1.41621e-06
1.41726e-06
1.41601e-06
1.41552e-06
1.41319e-06
1.41319e-06
1.41319e-06
1.4156e-06
1.41593e-06
1.41618e-06
1.41748e-06
1.41727e-06
1.4161e-06
1.41601e-06
1.41594e-06
1.41597e-06
1.41608e-06
1.41621e-06
1.41748e-06
1.41741e-06
1.41743e-06
1.41736e-06
1.41737e-06
1.41746e-06
1.40345e-06
1.40199e-06
1.4019e-06
1.40195e-06
1.4033e-06
1.40346e-06
1.40354e-06
1.4022e-06
1.40157e-06
1.3993e-06
1.3993e-06
1.3993e-06
1.40165e-06
1.40213e-06
1.40337e-06
1.4022e-06
1.40154e-06
1.3993e-06
1.3993e-06
1.3993e-06
1.3993e-06
1.3993e-06
1.4016e-06
1.40211e-06
1.40338e-06
1.40345e-06
1.40157e-06
1.3993e-06
1.3993e-06
1.3993e-06
1.3993e-06
1.3993e-06
1.3993e-06
1.3993e-06
1.40163e-06
1.40221e-06
1.40352e-06
1.40199e-06
1.3993e-06
1.3993e-06
1.3993e-06
1.3993e-06
1.3993e-06
1.3993e-06
1.3993e-06
1.3993e-06
1.3993e-06
1.40212e-06
1.40353e-06
1.4019e-06
1.3993e-06
1.3993e-06
1.3993e-06
1.3993e-06
1.3993e-06
1.3993e-06
1.3993e-06
1.3993e-06
1.3993e-06
1.40205e-06
1.40347e-06
1.40195e-06
1.3993e-06
1.3993e-06
1.3993e-06
1.3993e-06
1.3993e-06
1.3993e-06
1.3993e-06
1.3993e-06
1.3993e-06
1.40208e-06
1.40347e-06
1.4033e-06
1.40165e-06
1.3993e-06
1.3993e-06
1.3993e-06
1.3993e-06
1.3993e-06
1.3993e-06
1.3993e-06
1.40171e-06
1.40219e-06
1.40357e-06
1.40346e-06
1.40213e-06
1.4016e-06
1.3993e-06
1.3993e-06
1.3993e-06
1.3993e-06
1.3993e-06
1.40167e-06
1.40203e-06
1.40232e-06
1.40337e-06
1.40211e-06
1.40163e-06
1.3993e-06
1.3993e-06
1.3993e-06
1.40171e-06
1.40203e-06
1.40229e-06
1.40359e-06
1.40338e-06
1.40221e-06
1.40212e-06
1.40205e-06
1.40208e-06
1.40219e-06
1.40232e-06
1.40358e-06
1.40352e-06
1.40353e-06
1.40347e-06
1.40347e-06
1.40357e-06
1.38956e-06
1.3881e-06
1.38801e-06
1.38806e-06
1.38941e-06
1.38957e-06
1.38964e-06
1.38831e-06
1.38768e-06
1.38541e-06
1.38541e-06
1.38541e-06
1.38776e-06
1.38823e-06
1.38947e-06
1.38831e-06
1.38765e-06
1.38541e-06
1.38541e-06
1.38541e-06
1.38541e-06
1.38541e-06
1.38771e-06
1.38822e-06
1.38948e-06
1.38956e-06
1.38768e-06
1.38541e-06
1.38541e-06
1.38541e-06
1.38541e-06
1.38541e-06
1.38541e-06
1.38541e-06
1.38773e-06
1.38832e-06
1.38962e-06
1.3881e-06
1.38541e-06
1.38541e-06
1.38541e-06
1.38541e-06
1.38541e-06
1.38541e-06
1.38541e-06
1.38541e-06
1.38541e-06
1.38822e-06
1.38964e-06
1.38801e-06
1.38541e-06
1.38541e-06
1.38541e-06
1.38541e-06
1.38541e-06
1.38541e-06
1.38541e-06
1.38541e-06
1.38541e-06
1.38816e-06
1.38958e-06
1.38806e-06
1.38541e-06
1.38541e-06
1.38541e-06
1.38541e-06
1.38541e-06
1.38541e-06
1.38541e-06
1.38541e-06
1.38541e-06
1.38819e-06
1.38958e-06
1.38941e-06
1.38776e-06
1.38541e-06
1.38541e-06
1.38541e-06
1.38541e-06
1.38541e-06
1.38541e-06
1.38541e-06
1.38782e-06
1.38829e-06
1.38968e-06
1.38957e-06
1.38823e-06
1.38771e-06
1.38541e-06
1.38541e-06
1.38541e-06
1.38541e-06
1.38541e-06
1.38777e-06
1.38814e-06
1.38843e-06
1.38947e-06
1.38822e-06
1.38773e-06
1.38541e-06
1.38541e-06
1.38541e-06
1.38782e-06
1.38814e-06
1.38839e-06
1.38969e-06
1.38948e-06
1.38832e-06
1.38822e-06
1.38816e-06
1.38819e-06
1.38829e-06
1.38843e-06
1.38969e-06
1.38962e-06
1.38964e-06
1.38958e-06
1.38958e-06
1.38968e-06
1.37566e-06
1.37421e-06
1.37412e-06
1.37417e-06
1.37552e-06
1.37567e-06
1.37575e-06
1.37442e-06
1.37379e-06
1.37151e-06
1.37151e-06
1.37151e-06
1.37387e-06
1.37434e-06
1.37558e-06
1.37442e-06
1.37376e-06
1.37151e-06
1.37151e-06
1.37151e-06
1.37151e-06
1.37151e-06
1.37382e-06
1.37433e-06
1.37559e-06
1.37566e-06
1.37379e-06
1.37151e-06
1.37151e-06
1.37151e-06
1.37151e-06
1.37151e-06
1.37151e-06
1.37151e-06
1.37384e-06
1.37443e-06
1.37573e-06
1.37421e-06
1.37151e-06
1.37151e-06
1.37151e-06
1.37151e-06
1.37151e-06
1.37151e-06
1.37151e-06
1.37151e-06
1.37151e-06
1.37433e-06
1.37575e-06
1.37412e-06
1.37151e-06
1.37151e-06
1.37151e-06
1.37151e-06
1.37151e-06
1.37151e-06
1.37151e-06
1.37151e-06
1.37151e-06
1.37427e-06
1.37568e-06
1.37417e-06
1.37151e-06
1.37151e-06