/*--------------------------------*- C++ -*----------------------------------*\
| =========                 |                                                 |
| \\      /  F ield         | OpenFOAM: The Open Source CFD Toolbox           |
|  \\    /   O peration     | Version:  v2012                                 |
|   \\  /    A nd           | Website:  www.openfoam.com                      |
|    \\/     M anipulation  |                                                 |
\*---------------------------------------------------------------------------*/
FoamFile
{
    version     2.0;
    format      ascii;
    class       volScalarField;
    location    "35";
    object      p;
}
// * * * * * * * * * * * * * * * * * * * * * * * * * * * * * * * * * * * * * //

dimensions      [0 2 -2 0 0 0 0];


internalField   nonuniform List<scalar> 
292667
(
1.35511e-06
1.34491e-06
1.34405e-06
1.34413e-06
1.34534e-06
1.35606e-06
1.34512e-06
1.34207e-06
1.3403e-06
1.33957e-06
1.33967e-06
1.34061e-06
1.34266e-06
1.34603e-06
1.34512e-06
1.34117e-06
1.33873e-06
1.3374e-06
1.33684e-06
1.33691e-06
1.33764e-06
1.3392e-06
1.34196e-06
1.34629e-06
1.35511e-06
1.34206e-06
1.33873e-06
1.33677e-06
1.33568e-06
1.33521e-06
1.33527e-06
1.33588e-06
1.33716e-06
1.33939e-06
1.34315e-06
1.355e-06
1.34491e-06
1.34029e-06
1.3374e-06
1.33568e-06
1.3347e-06
1.33427e-06
1.33433e-06
1.33488e-06
1.33602e-06
1.33798e-06
1.34128e-06
1.34905e-06
1.34405e-06
1.33957e-06
1.33684e-06
1.33521e-06
1.33427e-06
1.33387e-06
1.33393e-06
1.33445e-06
1.33554e-06
1.33739e-06
1.34051e-06
1.34715e-06
1.34413e-06
1.33967e-06
1.33691e-06
1.33527e-06
1.33433e-06
1.33393e-06
1.33398e-06
1.33451e-06
1.33561e-06
1.33748e-06
1.34062e-06
1.34749e-06
1.34534e-06
1.34061e-06
1.33764e-06
1.33588e-06
1.33488e-06
1.33445e-06
1.33451e-06
1.33508e-06
1.33624e-06
1.33825e-06
1.34164e-06
1.3494e-06
1.35606e-06
1.34266e-06
1.3392e-06
1.33716e-06
1.33602e-06
1.33554e-06
1.3356e-06
1.33624e-06
1.33757e-06
1.33991e-06
1.3438e-06
1.35501e-06
1.34602e-06
1.34196e-06
1.33939e-06
1.33798e-06
1.33739e-06
1.33748e-06
1.33825e-06
1.33991e-06
1.34284e-06
1.34995e-06
1.34629e-06
1.34315e-06
1.34128e-06
1.34051e-06
1.34062e-06
1.34164e-06
1.3438e-06
1.34995e-06
1.355e-06
1.34904e-06
1.34715e-06
1.34749e-06
1.3494e-06
1.35501e-06
1.32561e-06
1.32451e-06
1.32448e-06
1.32452e-06
1.32551e-06
1.32546e-06
1.32569e-06
1.32481e-06
1.32438e-06
1.3227e-06
1.32267e-06
1.3227e-06
1.32452e-06
1.3248e-06
1.32565e-06
1.32481e-06
1.32439e-06
1.32275e-06
1.32267e-06
1.32272e-06
1.32267e-06
1.32275e-06
1.32449e-06
1.32477e-06
1.32562e-06
1.32561e-06
1.32438e-06
1.32275e-06
1.32267e-06
1.32272e-06
1.32271e-06
1.32272e-06
1.32268e-06
1.32275e-06
1.32447e-06
1.32479e-06
1.32572e-06
1.32451e-06
1.3227e-06
1.32267e-06
1.32272e-06
1.32268e-06
1.32268e-06
1.32268e-06
1.32272e-06
1.32267e-06
1.3227e-06
1.32489e-06
1.3258e-06
1.32448e-06
1.32267e-06
1.32272e-06
1.32271e-06
1.32268e-06
1.32267e-06
1.32268e-06
1.32271e-06
1.32272e-06
1.32268e-06
1.32488e-06
1.32564e-06
1.32451e-06
1.3227e-06
1.32267e-06
1.32272e-06
1.32268e-06
1.32268e-06
1.32268e-06
1.32272e-06
1.32267e-06
1.3227e-06
1.3249e-06
1.32568e-06
1.32551e-06
1.32452e-06
1.32275e-06
1.32267e-06
1.32272e-06
1.32271e-06
1.32272e-06
1.32267e-06
1.32275e-06
1.3246e-06
1.32482e-06
1.32578e-06
1.32546e-06
1.3248e-06
1.32449e-06
1.32275e-06
1.32267e-06
1.32272e-06
1.32267e-06
1.32275e-06
1.32456e-06
1.32478e-06
1.32484e-06
1.32565e-06
1.32477e-06
1.32447e-06
1.3227e-06
1.32267e-06
1.3227e-06
1.3246e-06
1.32477e-06
1.32491e-06
1.32578e-06
1.32562e-06
1.32479e-06
1.32489e-06
1.32488e-06
1.3249e-06
1.32482e-06
1.32484e-06
1.32578e-06
1.32572e-06
1.3258e-06
1.32563e-06
1.32568e-06
1.32578e-06
1.31431e-06
1.31325e-06
1.31318e-06
1.31323e-06
1.31425e-06
1.31433e-06
1.31436e-06
1.31342e-06
1.31293e-06
1.31127e-06
1.31127e-06
1.31127e-06
1.31307e-06
1.31342e-06
1.31429e-06
1.31342e-06
1.31292e-06
1.31133e-06
1.31132e-06
1.31136e-06
1.31132e-06
1.31133e-06
1.31307e-06
1.31341e-06
1.3143e-06
1.31431e-06
1.31292e-06
1.31133e-06
1.31133e-06
1.3114e-06
1.3114e-06
1.3114e-06
1.31133e-06
1.31133e-06
1.31307e-06
1.31347e-06
1.31437e-06
1.31325e-06
1.31127e-06
1.31132e-06
1.3114e-06
1.31141e-06
1.31143e-06
1.31141e-06
1.3114e-06
1.31132e-06
1.31127e-06
1.31349e-06
1.31447e-06
1.31318e-06
1.31126e-06
1.31136e-06
1.3114e-06
1.31143e-06
1.31144e-06
1.31143e-06
1.3114e-06
1.31136e-06
1.31127e-06
1.31348e-06
1.31446e-06
1.31323e-06
1.31127e-06
1.31132e-06
1.3114e-06
1.31141e-06
1.31143e-06
1.31141e-06
1.3114e-06
1.31132e-06
1.31127e-06
1.31348e-06
1.31446e-06
1.31425e-06
1.31307e-06
1.31133e-06
1.31133e-06
1.3114e-06
1.3114e-06
1.3114e-06
1.31133e-06
1.31133e-06
1.31323e-06
1.31349e-06
1.31448e-06
1.31433e-06
1.31342e-06
1.31307e-06
1.31133e-06
1.31132e-06
1.31136e-06
1.31132e-06
1.31133e-06
1.3132e-06
1.31341e-06
1.31355e-06
1.31429e-06
1.31341e-06
1.31307e-06
1.31127e-06
1.31127e-06
1.31127e-06
1.31323e-06
1.31341e-06
1.31353e-06
1.31447e-06
1.31429e-06
1.31347e-06
1.31348e-06
1.31347e-06
1.31348e-06
1.31349e-06
1.31355e-06
1.31446e-06
1.31437e-06
1.31447e-06
1.31445e-06
1.31446e-06
1.31448e-06
1.30308e-06
1.30201e-06
1.30193e-06
1.30198e-06
1.30302e-06
1.30311e-06
1.30313e-06
1.30216e-06
1.30165e-06
1.29998e-06
1.29997e-06
1.29998e-06
1.30178e-06
1.30216e-06
1.30306e-06
1.30216e-06
1.30163e-06
1.30001e-06
1.30001e-06
1.30004e-06
1.30001e-06
1.30001e-06
1.30177e-06
1.30215e-06
1.30307e-06
1.30308e-06
1.30165e-06
1.30001e-06
1.30003e-06
1.30007e-06
1.30007e-06
1.30007e-06
1.30003e-06
1.30001e-06
1.30178e-06
1.30223e-06
1.30314e-06
1.30201e-06
1.29997e-06
1.30001e-06
1.30007e-06
1.30009e-06
1.30011e-06
1.30009e-06
1.30007e-06
1.30001e-06
1.29998e-06
1.30223e-06
1.30324e-06
1.30193e-06
1.29997e-06
1.30004e-06
1.30007e-06
1.30011e-06
1.30011e-06
1.30011e-06
1.30007e-06
1.30004e-06
1.29997e-06
1.30221e-06
1.30322e-06
1.30198e-06
1.29997e-06
1.30001e-06
1.30007e-06
1.30009e-06
1.30011e-06
1.30009e-06
1.30007e-06
1.30001e-06
1.29998e-06
1.30222e-06
1.30323e-06
1.30302e-06
1.30178e-06
1.30001e-06
1.30003e-06
1.30007e-06
1.30007e-06
1.30007e-06
1.30003e-06
1.30001e-06
1.30196e-06
1.30225e-06
1.30325e-06
1.30311e-06
1.30216e-06
1.30177e-06
1.30001e-06
1.30001e-06
1.30004e-06
1.30001e-06
1.30001e-06
1.30193e-06
1.30216e-06
1.30232e-06
1.30306e-06
1.30215e-06
1.30178e-06
1.29998e-06
1.29997e-06
1.29998e-06
1.30196e-06
1.30216e-06
1.30229e-06
1.30324e-06
1.30307e-06
1.30223e-06
1.30223e-06
1.30221e-06
1.30222e-06
1.30225e-06
1.30232e-06
1.30324e-06
1.30314e-06
1.30324e-06
1.30322e-06
1.30323e-06
1.30325e-06
1.29185e-06
1.29077e-06
1.29069e-06
1.29074e-06
1.29179e-06
1.29188e-06
1.2919e-06
1.29092e-06
1.2904e-06
1.28872e-06
1.28872e-06
1.28872e-06
1.29053e-06
1.29091e-06
1.29183e-06
1.29092e-06
1.29037e-06
1.28873e-06
1.28874e-06
1.28875e-06
1.28874e-06
1.28873e-06
1.29051e-06
1.29091e-06
1.29183e-06
1.29185e-06
1.2904e-06
1.28873e-06
1.28875e-06
1.28877e-06
1.28878e-06
1.28877e-06
1.28875e-06
1.28873e-06
1.29053e-06
1.29099e-06
1.29191e-06
1.29077e-06
1.28872e-06
1.28874e-06
1.28877e-06
1.28879e-06
1.2888e-06
1.28879e-06
1.28877e-06
1.28874e-06
1.28872e-06
1.29099e-06
1.29201e-06
1.29069e-06
1.28872e-06
1.28875e-06
1.28878e-06
1.2888e-06
1.2888e-06
1.2888e-06
1.28878e-06
1.28875e-06
1.28872e-06
1.29097e-06
1.29199e-06
1.29074e-06
1.28872e-06
1.28874e-06
1.28877e-06
1.28879e-06
1.2888e-06
1.28879e-06
1.28877e-06
1.28874e-06
1.28872e-06
1.29098e-06
1.29199e-06
1.29179e-06
1.29053e-06
1.28873e-06
1.28875e-06
1.28877e-06
1.28878e-06
1.28877e-06
1.28875e-06
1.28873e-06
1.29071e-06
1.29101e-06
1.29202e-06
1.29188e-06
1.29091e-06
1.29051e-06
1.28873e-06
1.28874e-06
1.28875e-06
1.28874e-06
1.28873e-06
1.29068e-06
1.29092e-06
1.29109e-06
1.29183e-06
1.29091e-06
1.29053e-06
1.28872e-06
1.28872e-06
1.28872e-06
1.29071e-06
1.29092e-06
1.29106e-06
1.29201e-06
1.29183e-06
1.29099e-06
1.29099e-06
1.29097e-06
1.29098e-06
1.29101e-06
1.29109e-06
1.29201e-06
1.29191e-06
1.29201e-06
1.29199e-06
1.29199e-06
1.29202e-06
1.28061e-06
1.27953e-06
1.27946e-06
1.27951e-06
1.28055e-06
1.28064e-06
1.28066e-06
1.27968e-06
1.27915e-06
1.27747e-06
1.27747e-06
1.27747e-06
1.27929e-06
1.27967e-06
1.28059e-06
1.27968e-06
1.27912e-06
1.27747e-06
1.27748e-06
1.27749e-06
1.27748e-06
1.27747e-06
1.27927e-06
1.27967e-06
1.2806e-06
1.28061e-06
1.27915e-06
1.27747e-06
1.27749e-06
1.2775e-06
1.2775e-06
1.2775e-06
1.27749e-06
1.27747e-06
1.27929e-06
1.27975e-06
1.28067e-06
1.27953e-06
1.27747e-06
1.27748e-06
1.2775e-06
1.27751e-06
1.27752e-06
1.27751e-06
1.2775e-06
1.27748e-06
1.27747e-06
1.27975e-06
1.28077e-06
1.27946e-06
1.27747e-06
1.27749e-06
1.2775e-06
1.27752e-06
1.27752e-06
1.27752e-06
1.2775e-06
1.27749e-06
1.27747e-06
1.27973e-06
1.28075e-06
1.27951e-06
1.27747e-06
1.27748e-06
1.2775e-06
1.27751e-06
1.27752e-06
1.27751e-06
1.2775e-06
1.27748e-06
1.27747e-06
1.27974e-06
1.28076e-06
1.28055e-06
1.27929e-06
1.27747e-06
1.27749e-06
1.2775e-06
1.2775e-06
1.2775e-06
1.27749e-06
1.27747e-06
1.27947e-06
1.27977e-06
1.28078e-06
1.28064e-06
1.27967e-06
1.27927e-06
1.27747e-06
1.27748e-06
1.27749e-06
1.27748e-06
1.27747e-06
1.27943e-06
1.27968e-06
1.27985e-06
1.28059e-06
1.27967e-06
1.27929e-06
1.27747e-06
1.27747e-06
1.27747e-06
1.27947e-06
1.27968e-06
1.27983e-06
1.28077e-06
1.2806e-06
1.27975e-06
1.27975e-06
1.27973e-06
1.27974e-06
1.27977e-06
1.27985e-06
1.28077e-06
1.28067e-06
1.28077e-06
1.28075e-06
1.28076e-06
1.28078e-06
1.26938e-06
1.26829e-06
1.26822e-06
1.26827e-06
1.26932e-06
1.2694e-06
1.26943e-06
1.26845e-06
1.26791e-06
1.26623e-06
1.26623e-06
1.26623e-06
1.26805e-06
1.26843e-06
1.26936e-06
1.26845e-06
1.26788e-06
1.26623e-06
1.26623e-06
1.26624e-06
1.26623e-06
1.26623e-06
1.26802e-06
1.26843e-06
1.26936e-06
1.26938e-06
1.26791e-06
1.26623e-06
1.26624e-06
1.26624e-06
1.26624e-06
1.26624e-06
1.26624e-06
1.26623e-06
1.26805e-06
1.26852e-06
1.26944e-06
1.26829e-06
1.26622e-06
1.26623e-06
1.26624e-06
1.26625e-06
1.26625e-06
1.26625e-06
1.26624e-06
1.26623e-06
1.26622e-06
1.26851e-06
1.26953e-06
1.26822e-06
1.26623e-06
1.26624e-06
1.26624e-06
1.26625e-06
1.26625e-06
1.26625e-06
1.26624e-06
1.26624e-06
1.26623e-06
1.26849e-06
1.26952e-06
1.26827e-06
1.26622e-06
1.26623e-06
1.26624e-06
1.26625e-06
1.26625e-06
1.26625e-06
1.26624e-06
1.26623e-06
1.26622e-06
1.2685e-06
1.26952e-06
1.26932e-06
1.26805e-06
1.26623e-06
1.26624e-06
1.26624e-06
1.26624e-06
1.26624e-06
1.26624e-06
1.26623e-06
1.26823e-06
1.26854e-06
1.26954e-06
1.2694e-06
1.26843e-06
1.26802e-06
1.26623e-06
1.26623e-06
1.26624e-06
1.26623e-06
1.26623e-06
1.26819e-06
1.26844e-06
1.26862e-06
1.26936e-06
1.26843e-06
1.26805e-06
1.26623e-06
1.26623e-06
1.26623e-06
1.26823e-06
1.26844e-06
1.26859e-06
1.26954e-06
1.26936e-06
1.26852e-06
1.26851e-06
1.26849e-06
1.2685e-06
1.26854e-06
1.26862e-06
1.26954e-06
1.26944e-06
1.26953e-06
1.26952e-06
1.26952e-06
1.26954e-06
1.25814e-06
1.25706e-06
1.25698e-06
1.25703e-06
1.25808e-06
1.25816e-06
1.25819e-06
1.25721e-06
1.25667e-06
1.25498e-06
1.25498e-06
1.25498e-06
1.25681e-06
1.2572e-06
1.25812e-06
1.25721e-06
1.25664e-06
1.25499e-06
1.25499e-06
1.25499e-06
1.25499e-06
1.25499e-06
1.25678e-06
1.25719e-06
1.25812e-06
1.25814e-06
1.25667e-06
1.25499e-06
1.25499e-06
1.25499e-06
1.25499e-06
1.25499e-06
1.25499e-06
1.25499e-06
1.25681e-06
1.25728e-06
1.2582e-06
1.25706e-06
1.25498e-06
1.25499e-06
1.25499e-06
1.255e-06
1.255e-06
1.255e-06
1.25499e-06
1.25499e-06
1.25498e-06
1.25727e-06
1.25829e-06
1.25698e-06
1.25498e-06
1.25499e-06
1.25499e-06
1.255e-06
1.255e-06
1.255e-06
1.25499e-06
1.25499e-06
1.25498e-06
1.25725e-06
1.25828e-06
1.25703e-06
1.25498e-06
1.25499e-06
1.25499e-06
1.255e-06
1.255e-06
1.255e-06
1.25499e-06
1.25499e-06
1.25498e-06
1.25726e-06
1.25828e-06
1.25808e-06
1.25681e-06
1.25499e-06
1.25499e-06
1.25499e-06
1.25499e-06
1.25499e-06
1.25499e-06
1.25499e-06
1.25699e-06
1.2573e-06
1.25831e-06
1.25816e-06
1.2572e-06
1.25678e-06
1.25499e-06
1.25499e-06
1.25499e-06
1.25499e-06
1.25499e-06
1.25695e-06
1.2572e-06
1.25738e-06
1.25812e-06
1.25719e-06
1.25681e-06
1.25498e-06
1.25498e-06
1.25498e-06
1.25699e-06
1.2572e-06
1.25735e-06
1.2583e-06
1.25812e-06
1.25728e-06
1.25727e-06
1.25725e-06
1.25726e-06
1.2573e-06
1.25738e-06
1.2583e-06
1.2582e-06
1.25829e-06
1.25828e-06
1.25828e-06
1.25831e-06
1.2469e-06
1.24582e-06
1.24574e-06
1.24579e-06
1.24684e-06
1.24693e-06
1.24695e-06
1.24597e-06
1.24544e-06
1.24374e-06
1.24374e-06
1.24374e-06
1.24557e-06
1.24596e-06
1.24688e-06
1.24597e-06
1.2454e-06
1.24375e-06
1.24375e-06
1.24375e-06
1.24375e-06
1.24375e-06
1.24555e-06
1.24595e-06
1.24688e-06
1.2469e-06
1.24544e-06
1.24375e-06
1.24375e-06
1.24375e-06
1.24375e-06
1.24375e-06
1.24375e-06
1.24375e-06
1.24557e-06
1.24604e-06
1.24696e-06
1.24582e-06
1.24374e-06
1.24375e-06
1.24375e-06
1.24375e-06
1.24375e-06
1.24375e-06
1.24375e-06
1.24375e-06
1.24374e-06
1.24604e-06
1.24705e-06
1.24574e-06
1.24374e-06
1.24375e-06
1.24375e-06
1.24375e-06
1.24375e-06
1.24375e-06
1.24375e-06
1.24375e-06
1.24374e-06
1.24601e-06
1.24704e-06
1.24579e-06
1.24374e-06
1.24375e-06
1.24375e-06
1.24375e-06
1.24375e-06
1.24375e-06
1.24375e-06
1.24375e-06
1.24374e-06
1.24602e-06
1.24704e-06
1.24684e-06
1.24557e-06
1.24375e-06
1.24375e-06
1.24375e-06
1.24375e-06
1.24375e-06
1.24375e-06
1.24375e-06
1.24575e-06
1.24606e-06
1.24707e-06
1.24693e-06
1.24596e-06
1.24555e-06
1.24375e-06
1.24375e-06
1.24375e-06
1.24375e-06
1.24375e-06
1.24571e-06
1.24596e-06
1.24614e-06
1.24688e-06
1.24595e-06
1.24557e-06
1.24374e-06
1.24374e-06
1.24374e-06
1.24575e-06
1.24596e-06
1.24611e-06
1.24706e-06
1.24688e-06
1.24604e-06
1.24604e-06
1.24601e-06
1.24602e-06
1.24606e-06
1.24614e-06
1.24706e-06
1.24696e-06
1.24705e-06
1.24704e-06
1.24704e-06
1.24707e-06
1.23566e-06
1.23458e-06
1.2345e-06
1.23455e-06
1.2356e-06
1.23569e-06
1.23571e-06
1.23473e-06
1.2342e-06
1.23251e-06
1.23251e-06
1.23251e-06
1.23433e-06
1.23472e-06
1.23564e-06
1.23473e-06
1.23416e-06
1.23251e-06
1.23251e-06
1.23251e-06
1.23251e-06
1.23251e-06
1.23431e-06
1.23471e-06
1.23565e-06
1.23566e-06
1.2342e-06
1.23251e-06
1.23251e-06
1.23251e-06
1.23251e-06
1.23251e-06
1.23251e-06
1.23251e-06
1.23433e-06
1.2348e-06
1.23572e-06
1.23458e-06
1.23251e-06
1.23251e-06
1.23251e-06
1.23251e-06
1.23251e-06
1.23251e-06
1.23251e-06
1.23251e-06
1.23251e-06
1.2348e-06
1.23582e-06
1.2345e-06
1.23251e-06
1.23251e-06
1.23251e-06
1.23251e-06
1.23251e-06
1.23251e-06
1.23251e-06
1.23251e-06
1.23251e-06
1.23477e-06
1.2358e-06
1.23455e-06
1.23251e-06
1.23251e-06
1.23251e-06
1.23251e-06
1.23251e-06
1.23251e-06
1.23251e-06
1.23251e-06
1.23251e-06
1.23478e-06
1.2358e-06
1.2356e-06
1.23433e-06
1.23251e-06
1.23251e-06
1.23251e-06
1.23251e-06
1.23251e-06
1.23251e-06
1.23251e-06
1.23451e-06
1.23482e-06
1.23583e-06
1.23569e-06
1.23472e-06
1.23431e-06
1.23251e-06
1.23251e-06
1.23251e-06
1.23251e-06
1.23251e-06
1.23447e-06
1.23472e-06
1.2349e-06
1.23564e-06
1.23471e-06
1.23433e-06
1.23251e-06
1.23251e-06
1.23251e-06
1.23451e-06
1.23472e-06
1.23487e-06
1.23582e-06
1.23565e-06
1.2348e-06
1.2348e-06
1.23477e-06
1.23478e-06
1.23482e-06
1.2349e-06
1.23582e-06
1.23572e-06
1.23582e-06
1.2358e-06
1.2358e-06
1.23583e-06
1.22442e-06
1.22334e-06
1.22326e-06
1.22331e-06
1.22436e-06
1.22445e-06
1.22447e-06
1.22349e-06
1.22296e-06
1.22127e-06
1.22127e-06
1.22127e-06
1.22309e-06
1.22348e-06
1.2244e-06
1.22349e-06
1.22293e-06
1.22127e-06
1.22127e-06
1.22127e-06
1.22127e-06
1.22127e-06
1.22307e-06
1.22348e-06
1.22441e-06
1.22442e-06
1.22296e-06
1.22127e-06
1.22127e-06
1.22127e-06
1.22127e-06
1.22127e-06
1.22127e-06
1.22127e-06
1.22309e-06
1.22356e-06
1.22448e-06
1.22334e-06
1.22127e-06
1.22127e-06
1.22127e-06
1.22127e-06
1.22127e-06
1.22127e-06
1.22127e-06
1.22127e-06
1.22127e-06
1.22356e-06
1.22458e-06
1.22326e-06
1.22127e-06
1.22127e-06
1.22127e-06
1.22127e-06
1.22127e-06
1.22127e-06
1.22127e-06
1.22127e-06
1.22127e-06
1.22353e-06
1.22456e-06
1.22331e-06
1.22127e-06
1.22127e-06
1.22127e-06
1.22127e-06
1.22127e-06
1.22127e-06
1.22127e-06
1.22127e-06
1.22127e-06
1.22354e-06
1.22456e-06
1.22436e-06
1.22309e-06
1.22127e-06
1.22127e-06
1.22127e-06
1.22127e-06
1.22127e-06
1.22127e-06
1.22127e-06
1.22327e-06
1.22358e-06
1.22459e-06
1.22445e-06
1.22348e-06
1.22307e-06
1.22127e-06
1.22127e-06
1.22127e-06
1.22127e-06
1.22127e-06
1.22323e-06
1.22348e-06
1.22366e-06
1.2244e-06
1.22348e-06
1.22309e-06
1.22127e-06
1.22127e-06
1.22127e-06
1.22327e-06
1.22348e-06
1.22363e-06
1.22458e-06
1.22441e-06
1.22356e-06
1.22356e-06
1.22353e-06
1.22354e-06
1.22358e-06
1.22366e-06
1.22458e-06
1.22448e-06
1.22458e-06
1.22456e-06
1.22456e-06
1.22459e-06
1.21318e-06
1.2121e-06
1.21202e-06
1.21207e-06
1.21312e-06
1.21321e-06
1.21323e-06
1.21225e-06
1.21172e-06
1.21003e-06
1.21003e-06
1.21003e-06
1.21186e-06
1.21224e-06
1.21316e-06
1.21225e-06
1.21169e-06
1.21003e-06
1.21003e-06
1.21003e-06
1.21003e-06
1.21003e-06
1.21183e-06
1.21224e-06
1.21317e-06
1.21318e-06
1.21172e-06
1.21003e-06
1.21003e-06
1.21003e-06
1.21003e-06
1.21003e-06
1.21003e-06
1.21003e-06
1.21185e-06
1.21232e-06
1.21324e-06
1.2121e-06
1.21003e-06
1.21003e-06
1.21003e-06
1.21003e-06
1.21003e-06
1.21003e-06
1.21003e-06
1.21003e-06
1.21003e-06
1.21232e-06
1.21334e-06
1.21202e-06
1.21003e-06
1.21003e-06
1.21003e-06
1.21003e-06
1.21003e-06
1.21003e-06
1.21003e-06
1.21003e-06
1.21003e-06
1.21229e-06
1.21332e-06
1.21207e-06
1.21003e-06
1.21003e-06
1.21003e-06
1.21003e-06
1.21003e-06
1.21003e-06
1.21003e-06
1.21003e-06
1.21003e-06
1.2123e-06
1.21333e-06
1.21312e-06
1.21186e-06
1.21003e-06
1.21003e-06
1.21003e-06
1.21003e-06
1.21003e-06
1.21003e-06
1.21003e-06
1.21203e-06
1.21234e-06
1.21335e-06
1.21321e-06
1.21224e-06
1.21183e-06
1.21003e-06
1.21003e-06
1.21003e-06
1.21003e-06
1.21003e-06
1.212e-06
1.21224e-06
1.21242e-06
1.21316e-06
1.21224e-06
1.21185e-06
1.21003e-06
1.21003e-06
1.21003e-06
1.21203e-06
1.21224e-06
1.2124e-06
1.21334e-06
1.21317e-06
1.21232e-06
1.21232e-06
1.21229e-06
1.2123e-06
1.21234e-06
1.21242e-06
1.21334e-06
1.21324e-06
1.21334e-06
1.21332e-06
1.21333e-06
1.21335e-06
1.20194e-06
1.20086e-06
1.20078e-06
1.20084e-06
1.20188e-06
1.20197e-06
1.20199e-06
1.20101e-06
1.20048e-06
1.19879e-06
1.19879e-06
1.19879e-06
1.20062e-06
1.201e-06
1.20192e-06
1.20101e-06
1.20045e-06
1.19879e-06
1.19879e-06
1.19879e-06
1.19879e-06
1.19879e-06
1.20059e-06
1.201e-06
1.20193e-06
1.20194e-06
1.20048e-06
1.19879e-06
1.19879e-06
1.19879e-06
1.19879e-06
1.19879e-06
1.19879e-06
1.19879e-06
1.20061e-06
1.20108e-06
1.202e-06
1.20086e-06
1.19879e-06
1.19879e-06
1.19879e-06
1.19879e-06
1.19879e-06
1.19879e-06
1.19879e-06
1.19879e-06
1.19879e-06
1.20108e-06
1.2021e-06
1.20078e-06
1.19879e-06
1.19879e-06
1.19879e-06
1.19879e-06
1.19879e-06
1.19879e-06
1.19879e-06
1.19879e-06
1.19879e-06
1.20105e-06
1.20208e-06
1.20084e-06
1.19879e-06
1.19879e-06
1.19879e-06
1.19879e-06
1.19879e-06
1.19879e-06
1.19879e-06
1.19879e-06
1.19879e-06
1.20106e-06
1.20209e-06
1.20188e-06
1.20062e-06
1.19879e-06
1.19879e-06
1.19879e-06
1.19879e-06
1.19879e-06
1.19879e-06
1.19879e-06
1.20079e-06
1.2011e-06
1.20211e-06
1.20197e-06
1.201e-06
1.20059e-06
1.19879e-06
1.19879e-06
1.19879e-06
1.19879e-06
1.19879e-06
1.20076e-06
1.20101e-06
1.20118e-06
1.20192e-06
1.201e-06
1.20061e-06
1.19879e-06
1.19879e-06
1.19879e-06
1.20079e-06
1.20101e-06
1.20116e-06
1.2021e-06
1.20193e-06
1.20108e-06
1.20108e-06
1.20105e-06
1.20106e-06
1.2011e-06
1.20118e-06
1.2021e-06
1.202e-06
1.2021e-06
1.20208e-06
1.20209e-06
1.20211e-06
1.19071e-06
1.18962e-06
1.18955e-06
1.1896e-06
1.19064e-06
1.19073e-06
1.19076e-06
1.18977e-06
1.18924e-06
1.18755e-06
1.18755e-06
1.18755e-06
1.18938e-06
1.18976e-06
1.19069e-06
1.18977e-06
1.18921e-06
1.18755e-06
1.18755e-06
1.18755e-06
1.18755e-06
1.18755e-06
1.18935e-06
1.18976e-06
1.19069e-06
1.19071e-06
1.18924e-06
1.18755e-06
1.18755e-06
1.18755e-06
1.18755e-06
1.18755e-06
1.18755e-06
1.18755e-06
1.18937e-06
1.18984e-06
1.19077e-06
1.18962e-06
1.18755e-06
1.18755e-06
1.18755e-06
1.18755e-06
1.18755e-06
1.18755e-06
1.18755e-06
1.18755e-06
1.18755e-06
1.18984e-06
1.19086e-06
1.18955e-06
1.18755e-06
1.18755e-06
1.18755e-06
1.18755e-06
1.18755e-06
1.18755e-06
1.18755e-06
1.18755e-06
1.18755e-06
1.18981e-06
1.19085e-06
1.1896e-06
1.18755e-06
1.18755e-06
1.18755e-06
1.18755e-06
1.18755e-06
1.18755e-06
1.18755e-06
1.18755e-06
1.18755e-06
1.18983e-06
1.19085e-06
1.19064e-06
1.18938e-06
1.18755e-06
1.18755e-06
1.18755e-06
1.18755e-06
1.18755e-06
1.18755e-06
1.18755e-06
1.18956e-06
1.18987e-06
1.19087e-06
1.19073e-06
1.18976e-06
1.18935e-06
1.18755e-06
1.18755e-06
1.18755e-06
1.18755e-06
1.18755e-06
1.18952e-06
1.18977e-06
1.18994e-06
1.19069e-06
1.18976e-06
1.18937e-06
1.18755e-06
1.18755e-06
1.18755e-06
1.18956e-06
1.18977e-06
1.18992e-06
1.19087e-06
1.19069e-06
1.18984e-06
1.18984e-06
1.18981e-06
1.18983e-06
1.18987e-06
1.18994e-06
1.19087e-06
1.19077e-06
1.19086e-06
1.19085e-06
1.19085e-06
1.19087e-06
1.17947e-06
1.17838e-06
1.17831e-06
1.17836e-06
1.17941e-06
1.17949e-06
1.17952e-06
1.17854e-06
1.178e-06
1.17631e-06
1.17631e-06
1.17631e-06
1.17814e-06
1.17852e-06
1.17945e-06
1.17854e-06
1.17797e-06
1.17631e-06
1.17631e-06
1.17631e-06
1.17631e-06
1.17631e-06
1.17811e-06
1.17852e-06
1.17945e-06
1.17947e-06
1.178e-06
1.17631e-06
1.17631e-06
1.17631e-06
1.17631e-06
1.17631e-06
1.17631e-06
1.17631e-06
1.17814e-06
1.17861e-06
1.17953e-06
1.17838e-06
1.17631e-06
1.17631e-06
1.17631e-06
1.17631e-06
1.17631e-06
1.17631e-06
1.17631e-06
1.17631e-06
1.17631e-06
1.1786e-06
1.17962e-06
1.17831e-06
1.17631e-06
1.17631e-06
1.17631e-06
1.17631e-06
1.17631e-06
1.17631e-06
1.17631e-06
1.17631e-06
1.17631e-06
1.17857e-06
1.17961e-06
1.17836e-06
1.17631e-06
1.17631e-06
1.17631e-06
1.17631e-06
1.17631e-06
1.17631e-06
1.17631e-06
1.17631e-06
1.17631e-06
1.17859e-06
1.17961e-06
1.17941e-06
1.17814e-06
1.17631e-06
1.17631e-06
1.17631e-06
1.17631e-06
1.17631e-06
1.17631e-06
1.17631e-06
1.17832e-06
1.17863e-06
1.17963e-06
1.17949e-06
1.17852e-06
1.17811e-06
1.17631e-06
1.17631e-06
1.17631e-06
1.17631e-06
1.17631e-06
1.17828e-06
1.17853e-06
1.17871e-06
1.17945e-06
1.17852e-06
1.17814e-06
1.17631e-06
1.17631e-06
1.17631e-06
1.17832e-06
1.17853e-06
1.17868e-06
1.17963e-06
1.17945e-06
1.17861e-06
1.1786e-06
1.17857e-06
1.17859e-06
1.17863e-06
1.17871e-06
1.17963e-06
1.17953e-06
1.17962e-06
1.17961e-06
1.17961e-06
1.17963e-06
1.16823e-06
1.16715e-06
1.16707e-06
1.16712e-06
1.16817e-06
1.16825e-06
1.16828e-06
1.1673e-06
1.16676e-06
1.16507e-06
1.16507e-06
1.16507e-06
1.1669e-06
1.16728e-06
1.16821e-06
1.1673e-06
1.16673e-06
1.16507e-06
1.16507e-06
1.16507e-06
1.16507e-06
1.16507e-06
1.16687e-06
1.16728e-06
1.16821e-06
1.16823e-06
1.16676e-06
1.16507e-06
1.16507e-06
1.16507e-06
1.16507e-06
1.16507e-06
1.16507e-06
1.16507e-06
1.1669e-06
1.16737e-06
1.16829e-06
1.16715e-06
1.16507e-06
1.16507e-06
1.16507e-06
1.16507e-06
1.16507e-06
1.16507e-06
1.16507e-06
1.16507e-06
1.16507e-06
1.16736e-06
1.16838e-06
1.16707e-06
1.16507e-06
1.16507e-06
1.16507e-06
1.16507e-06
1.16507e-06
1.16507e-06
1.16507e-06
1.16507e-06
1.16507e-06
1.16734e-06
1.16837e-06
1.16712e-06
1.16507e-06
1.16507e-06
1.16507e-06
1.16507e-06
1.16507e-06
1.16507e-06
1.16507e-06
1.16507e-06
1.16507e-06
1.16735e-06
1.16837e-06
1.16817e-06
1.1669e-06
1.16507e-06
1.16507e-06
1.16507e-06
1.16507e-06
1.16507e-06
1.16507e-06
1.16507e-06
1.16708e-06
1.16739e-06
1.1684e-06
1.16825e-06
1.16728e-06
1.16687e-06
1.16507e-06
1.16507e-06
1.16507e-06
1.16507e-06
1.16507e-06
1.16704e-06
1.16729e-06
1.16747e-06
1.16821e-06
1.16728e-06
1.1669e-06
1.16507e-06
1.16507e-06
1.16507e-06
1.16708e-06
1.16729e-06
1.16744e-06
1.16839e-06
1.16821e-06
1.16737e-06
1.16736e-06
1.16734e-06
1.16735e-06
1.16739e-06
1.16747e-06
1.16839e-06
1.16829e-06
1.16838e-06
1.16837e-06
1.16837e-06
1.1684e-06
1.15699e-06
1.15591e-06
1.15583e-06
1.15588e-06
1.15693e-06
1.15702e-06
1.15704e-06
1.15606e-06
1.15552e-06
1.15383e-06
1.15383e-06
1.15383e-06
1.15566e-06
1.15605e-06
1.15697e-06
1.15606e-06
1.15549e-06
1.15383e-06
1.15383e-06
1.15383e-06
1.15383e-06
1.15383e-06
1.15563e-06
1.15604e-06
1.15697e-06
1.15699e-06
1.15552e-06
1.15383e-06
1.15383e-06
1.15383e-06
1.15383e-06
1.15383e-06
1.15383e-06
1.15383e-06
1.15566e-06
1.15613e-06
1.15705e-06
1.15591e-06
1.15383e-06
1.15383e-06
1.15383e-06
1.15383e-06
1.15383e-06
1.15383e-06
1.15383e-06
1.15383e-06
1.15383e-06
1.15612e-06
1.15714e-06
1.15583e-06
1.15383e-06
1.15383e-06
1.15383e-06
1.15383e-06
1.15383e-06
1.15383e-06
1.15383e-06
1.15383e-06
1.15383e-06
1.1561e-06
1.15713e-06
1.15588e-06
1.15383e-06
1.15383e-06
1.15383e-06
1.15383e-06
1.15383e-06
1.15383e-06
1.15383e-06
1.15383e-06
1.15383e-06
1.15611e-06
1.15713e-06
1.15693e-06
1.15566e-06
1.15383e-06
1.15383e-06
1.15383e-06
1.15383e-06
1.15383e-06
1.15383e-06
1.15383e-06
1.15584e-06
1.15615e-06
1.15716e-06
1.15702e-06
1.15605e-06
1.15563e-06
1.15383e-06
1.15383e-06
1.15383e-06
1.15383e-06
1.15383e-06
1.1558e-06
1.15605e-06
1.15623e-06
1.15697e-06
1.15604e-06
1.15566e-06
1.15383e-06
1.15383e-06
1.15383e-06
1.15584e-06
1.15605e-06
1.1562e-06
1.15715e-06
1.15697e-06
1.15613e-06
1.15612e-06
1.1561e-06
1.15611e-06
1.15615e-06
1.15623e-06
1.15715e-06
1.15705e-06
1.15714e-06
1.15713e-06
1.15713e-06
1.15716e-06
1.14575e-06
1.14467e-06
1.14459e-06
1.14464e-06
1.14569e-06
1.14578e-06
1.1458e-06
1.14482e-06
1.14429e-06
1.14259e-06
1.14259e-06
1.14259e-06
1.14442e-06
1.14481e-06
1.14573e-06
1.14482e-06
1.14425e-06
1.14259e-06
1.14259e-06
1.14259e-06
1.14259e-06
1.14259e-06
1.1444e-06
1.1448e-06
1.14574e-06
1.14575e-06
1.14429e-06
1.14259e-06
1.14259e-06
1.14259e-06
1.14259e-06
1.14259e-06
1.14259e-06
1.14259e-06
1.14442e-06
1.14489e-06
1.14581e-06
1.14467e-06
1.14259e-06
1.14259e-06
1.14259e-06
1.14259e-06
1.14259e-06
1.14259e-06
1.14259e-06
1.14259e-06
1.14259e-06
1.14489e-06
1.1459e-06
1.14459e-06
1.14259e-06
1.14259e-06
1.14259e-06
1.14259e-06
1.14259e-06
1.14259e-06
1.14259e-06
1.14259e-06
1.14259e-06
1.14486e-06
1.14589e-06
1.14464e-06
1.14259e-06
1.14259e-06
1.14259e-06
1.14259e-06
1.14259e-06
1.14259e-06
1.14259e-06
1.14259e-06
1.14259e-06
1.14487e-06
1.14589e-06
1.14569e-06
1.14442e-06
1.14259e-06
1.14259e-06
1.14259e-06
1.14259e-06
1.14259e-06
1.14259e-06
1.14259e-06
1.1446e-06
1.14491e-06
1.14592e-06
1.14578e-06
1.14481e-06
1.1444e-06
1.14259e-06
1.14259e-06
1.14259e-06
1.14259e-06
1.14259e-06
1.14456e-06
1.14481e-06
1.14499e-06
1.14573e-06
1.1448e-06
1.14442e-06
1.14259e-06
1.14259e-06
1.14259e-06
1.1446e-06
1.14481e-06
1.14496e-06
1.14591e-06
1.14574e-06
1.14489e-06
1.14489e-06
1.14486e-06
1.14487e-06
1.14491e-06
1.14499e-06
1.14591e-06
1.14581e-06
1.1459e-06
1.14589e-06
1.14589e-06
1.14592e-06
1.13451e-06
1.13343e-06
1.13335e-06
1.1334e-06
1.13445e-06
1.13454e-06
1.13456e-06
1.13358e-06
1.13305e-06
1.13135e-06
1.13136e-06
1.13135e-06
1.13318e-06
1.13357e-06
1.13449e-06
1.13358e-06
1.13301e-06
1.13135e-06
1.13136e-06
1.13136e-06
1.13136e-06
1.13135e-06
1.13316e-06
1.13356e-06
1.1345e-06
1.13451e-06
1.13305e-06
1.13135e-06
1.13136e-06
1.13135e-06
1.13136e-06
1.13135e-06
1.13136e-06
1.13135e-06
1.13318e-06
1.13365e-06
1.13457e-06
1.13343e-06
1.13135e-06
1.13136e-06
1.13135e-06
1.13136e-06
1.13136e-06
1.13136e-06
1.13135e-06
1.13136e-06
1.13135e-06
1.13365e-06
1.13467e-06
1.13335e-06
1.13136e-06
1.13136e-06
1.13136e-06
1.13136e-06
1.13136e-06
1.13136e-06
1.13136e-06
1.13136e-06
1.13136e-06
1.13362e-06
1.13465e-06
1.1334e-06
1.13135e-06
1.13136e-06
1.13135e-06
1.13136e-06
1.13136e-06
1.13136e-06
1.13135e-06
1.13136e-06
1.13135e-06
1.13363e-06
1.13465e-06
1.13445e-06
1.13318e-06
1.13135e-06
1.13136e-06
1.13135e-06
1.13136e-06
1.13135e-06
1.13136e-06
1.13135e-06
1.13336e-06
1.13367e-06
1.13468e-06
1.13454e-06
1.13357e-06
1.13316e-06
1.13135e-06
1.13136e-06
1.13136e-06
1.13136e-06
1.13135e-06
1.13332e-06
1.13357e-06
1.13375e-06
1.13449e-06
1.13356e-06
1.13318e-06
1.13135e-06
1.13136e-06
1.13135e-06
1.13336e-06
1.13357e-06
1.13372e-06
1.13467e-06
1.1345e-06
1.13365e-06
1.13365e-06
1.13362e-06
1.13363e-06
1.13367e-06
1.13375e-06
1.13467e-06
1.13457e-06
1.13467e-06
1.13465e-06
1.13465e-06
1.13468e-06
1.12327e-06
1.12219e-06
1.12211e-06
1.12216e-06
1.12321e-06
1.1233e-06
1.12332e-06
1.12234e-06
1.12181e-06
1.12012e-06
1.12012e-06
1.12012e-06
1.12194e-06
1.12233e-06
1.12325e-06
1.12234e-06
1.12178e-06
1.12012e-06
1.12012e-06
1.12012e-06
1.12012e-06
1.12012e-06
1.12192e-06
1.12233e-06
1.12326e-06
1.12327e-06
1.12181e-06
1.12012e-06
1.12012e-06
1.12012e-06
1.12012e-06
1.12012e-06
1.12012e-06
1.12012e-06
1.12194e-06
1.12241e-06
1.12333e-06
1.12219e-06
1.12012e-06
1.12012e-06
1.12012e-06
1.12012e-06
1.12012e-06
1.12012e-06
1.12012e-06
1.12012e-06
1.12012e-06
1.12241e-06
1.12343e-06
1.12211e-06
1.12012e-06
1.12012e-06
1.12012e-06
1.12012e-06
1.12012e-06
1.12012e-06
1.12012e-06
1.12012e-06
1.12012e-06
1.12238e-06
1.12341e-06
1.12216e-06
1.12012e-06
1.12012e-06
1.12012e-06
1.12012e-06
1.12012e-06
1.12012e-06
1.12012e-06
1.12012e-06
1.12012e-06
1.12239e-06
1.12341e-06
1.12321e-06
1.12194e-06
1.12012e-06
1.12012e-06
1.12012e-06
1.12012e-06
1.12012e-06
1.12012e-06
1.12012e-06
1.12212e-06
1.12243e-06
1.12344e-06
1.1233e-06
1.12233e-06
1.12192e-06
1.12012e-06
1.12012e-06
1.12012e-06
1.12012e-06
1.12012e-06
1.12208e-06
1.12233e-06
1.12251e-06
1.12325e-06
1.12233e-06
1.12194e-06
1.12012e-06
1.12012e-06
1.12012e-06
1.12212e-06
1.12233e-06
1.12248e-06
1.12343e-06
1.12326e-06
1.12241e-06
1.12241e-06
1.12238e-06
1.12239e-06
1.12243e-06
1.12251e-06
1.12343e-06
1.12333e-06
1.12343e-06
1.12341e-06
1.12341e-06
1.12344e-06
1.11203e-06
1.11095e-06
1.11087e-06
1.11092e-06
1.11197e-06
1.11206e-06
1.11208e-06
1.1111e-06
1.11057e-06
1.10888e-06
1.10888e-06
1.10888e-06
1.11071e-06
1.11109e-06
1.11201e-06
1.1111e-06
1.11054e-06
1.10888e-06
1.10888e-06
1.10888e-06
1.10888e-06
1.10888e-06
1.11068e-06
1.11109e-06
1.11202e-06
1.11203e-06
1.11057e-06
1.10888e-06
1.10888e-06
1.10888e-06
1.10888e-06
1.10888e-06
1.10888e-06
1.10888e-06
1.1107e-06
1.11117e-06
1.11209e-06
1.11095e-06
1.10888e-06
1.10888e-06
1.10888e-06
1.10888e-06
1.10888e-06
1.10888e-06
1.10888e-06
1.10888e-06
1.10888e-06
1.11117e-06
1.11219e-06
1.11087e-06
1.10888e-06
1.10888e-06
1.10888e-06
1.10888e-06
1.10888e-06
1.10888e-06
1.10888e-06
1.10888e-06
1.10888e-06
1.11114e-06
1.11217e-06
1.11092e-06