/*--------------------------------*- C++ -*----------------------------------*\
| =========                 |                                                 |
| \\      /  F ield         | OpenFOAM: The Open Source CFD Toolbox           |
|  \\    /   O peration     | Version:  v2012                                 |
|   \\  /    A nd           | Website:  www.openfoam.com                      |
|    \\/     M anipulation  |                                                 |
\*---------------------------------------------------------------------------*/
FoamFile
{
    version     2.0;
    format      ascii;
    class       volScalarField;
    location    "34";
    object      p;
}
// * * * * * * * * * * * * * * * * * * * * * * * * * * * * * * * * * * * * * //

dimensions      [0 2 -2 0 0 0 0];


internalField   nonuniform List<scalar> 
292667
(
1.36841e-06
1.35813e-06
1.35726e-06
1.35734e-06
1.35856e-06
1.36936e-06
1.35834e-06
1.35525e-06
1.35346e-06
1.35273e-06
1.35283e-06
1.35378e-06
1.35586e-06
1.35926e-06
1.35834e-06
1.35434e-06
1.35188e-06
1.35054e-06
1.34997e-06
1.35004e-06
1.35078e-06
1.35235e-06
1.35514e-06
1.35953e-06
1.36841e-06
1.35525e-06
1.35188e-06
1.3499e-06
1.34879e-06
1.34832e-06
1.34838e-06
1.349e-06
1.35029e-06
1.35255e-06
1.35634e-06
1.36832e-06
1.35813e-06
1.35346e-06
1.35054e-06
1.34879e-06
1.34781e-06
1.34738e-06
1.34744e-06
1.34799e-06
1.34914e-06
1.35112e-06
1.35445e-06
1.36231e-06
1.35726e-06
1.35273e-06
1.34997e-06
1.34832e-06
1.34738e-06
1.34697e-06
1.34703e-06
1.34756e-06
1.34865e-06
1.35053e-06
1.35368e-06
1.36039e-06
1.35734e-06
1.35283e-06
1.35004e-06
1.34838e-06
1.34744e-06
1.34703e-06
1.34708e-06
1.34762e-06
1.34872e-06
1.35061e-06
1.35379e-06
1.36074e-06
1.35856e-06
1.35378e-06
1.35078e-06
1.349e-06
1.34799e-06
1.34756e-06
1.34762e-06
1.34819e-06
1.34936e-06
1.35139e-06
1.35482e-06
1.36267e-06
1.36936e-06
1.35586e-06
1.35235e-06
1.35029e-06
1.34914e-06
1.34865e-06
1.34872e-06
1.34936e-06
1.35071e-06
1.35307e-06
1.35701e-06
1.36834e-06
1.35926e-06
1.35514e-06
1.35255e-06
1.35112e-06
1.35053e-06
1.35061e-06
1.35139e-06
1.35307e-06
1.35603e-06
1.36321e-06
1.35953e-06
1.35634e-06
1.35445e-06
1.35368e-06
1.35379e-06
1.35482e-06
1.35701e-06
1.36321e-06
1.36832e-06
1.36231e-06
1.36039e-06
1.36074e-06
1.36267e-06
1.36834e-06
1.33865e-06
1.33752e-06
1.3375e-06
1.33753e-06
1.33854e-06
1.33849e-06
1.33872e-06
1.33782e-06
1.33739e-06
1.33569e-06
1.33566e-06
1.33569e-06
1.33753e-06
1.33781e-06
1.33868e-06
1.33782e-06
1.33741e-06
1.33574e-06
1.33566e-06
1.33571e-06
1.33566e-06
1.33574e-06
1.3375e-06
1.33778e-06
1.33865e-06
1.33865e-06
1.33739e-06
1.33574e-06
1.33566e-06
1.33571e-06
1.3357e-06
1.33571e-06
1.33566e-06
1.33574e-06
1.33748e-06
1.3378e-06
1.33875e-06
1.33752e-06
1.33569e-06
1.33566e-06
1.33571e-06
1.33567e-06
1.33567e-06
1.33567e-06
1.33571e-06
1.33566e-06
1.33569e-06
1.3379e-06
1.33882e-06
1.33749e-06
1.33566e-06
1.33571e-06
1.3357e-06
1.33567e-06
1.33566e-06
1.33567e-06
1.3357e-06
1.33571e-06
1.33566e-06
1.33789e-06
1.33865e-06
1.33753e-06
1.33569e-06
1.33566e-06
1.33571e-06
1.33567e-06
1.33567e-06
1.33567e-06
1.33571e-06
1.33566e-06
1.33569e-06
1.3379e-06
1.3387e-06
1.33854e-06
1.33753e-06
1.33574e-06
1.33566e-06
1.33571e-06
1.3357e-06
1.33571e-06
1.33566e-06
1.33574e-06
1.3376e-06
1.33783e-06
1.33881e-06
1.33849e-06
1.33781e-06
1.3375e-06
1.33574e-06
1.33566e-06
1.33571e-06
1.33566e-06
1.33574e-06
1.33757e-06
1.33778e-06
1.33785e-06
1.33868e-06
1.33778e-06
1.33748e-06
1.33569e-06
1.33566e-06
1.33569e-06
1.33761e-06
1.33778e-06
1.33793e-06
1.33881e-06
1.33865e-06
1.3378e-06
1.3379e-06
1.33789e-06
1.3379e-06
1.33783e-06
1.33785e-06
1.33881e-06
1.33875e-06
1.33882e-06
1.33865e-06
1.3387e-06
1.33881e-06
1.32723e-06
1.32615e-06
1.32608e-06
1.32613e-06
1.32717e-06
1.32725e-06
1.32728e-06
1.32632e-06
1.32583e-06
1.32415e-06
1.32414e-06
1.32415e-06
1.32597e-06
1.32632e-06
1.32721e-06
1.32632e-06
1.32582e-06
1.3242e-06
1.32419e-06
1.32424e-06
1.32419e-06
1.3242e-06
1.32597e-06
1.32631e-06
1.32721e-06
1.32723e-06
1.32583e-06
1.3242e-06
1.32421e-06
1.32428e-06
1.32428e-06
1.32428e-06
1.32421e-06
1.3242e-06
1.32596e-06
1.32637e-06
1.32729e-06
1.32615e-06
1.32415e-06
1.32419e-06
1.32428e-06
1.32429e-06
1.32431e-06
1.32429e-06
1.32428e-06
1.32419e-06
1.32415e-06
1.32638e-06
1.32738e-06
1.32608e-06
1.32414e-06
1.32424e-06
1.32428e-06
1.32431e-06
1.32432e-06
1.32431e-06
1.32428e-06
1.32424e-06
1.32414e-06
1.32637e-06
1.32737e-06
1.32613e-06
1.32415e-06
1.32419e-06
1.32428e-06
1.32429e-06
1.32431e-06
1.32429e-06
1.32428e-06
1.32419e-06
1.32415e-06
1.32638e-06
1.32737e-06
1.32717e-06
1.32597e-06
1.3242e-06
1.32421e-06
1.32428e-06
1.32428e-06
1.32428e-06
1.32421e-06
1.3242e-06
1.32612e-06
1.32639e-06
1.3274e-06
1.32725e-06
1.32632e-06
1.32597e-06
1.3242e-06
1.32419e-06
1.32424e-06
1.32419e-06
1.3242e-06
1.32609e-06
1.32631e-06
1.32645e-06
1.32721e-06
1.32631e-06
1.32596e-06
1.32415e-06
1.32414e-06
1.32415e-06
1.32612e-06
1.32631e-06
1.32643e-06
1.32738e-06
1.32721e-06
1.32637e-06
1.32638e-06
1.32637e-06
1.32638e-06
1.32639e-06
1.32645e-06
1.32738e-06
1.32729e-06
1.32738e-06
1.32737e-06
1.32737e-06
1.3274e-06
1.31589e-06
1.3148e-06
1.31472e-06
1.31477e-06
1.31583e-06
1.31591e-06
1.31594e-06
1.31496e-06
1.31444e-06
1.31274e-06
1.31274e-06
1.31274e-06
1.31457e-06
1.31495e-06
1.31587e-06
1.31496e-06
1.31442e-06
1.31277e-06
1.31278e-06
1.3128e-06
1.31278e-06
1.31277e-06
1.31456e-06
1.31494e-06
1.31587e-06
1.31589e-06
1.31444e-06
1.31277e-06
1.31279e-06
1.31284e-06
1.31284e-06
1.31284e-06
1.31279e-06
1.31277e-06
1.31457e-06
1.31502e-06
1.31595e-06
1.3148e-06
1.31274e-06
1.31278e-06
1.31284e-06
1.31286e-06
1.31287e-06
1.31286e-06
1.31284e-06
1.31278e-06
1.31274e-06
1.31502e-06
1.31604e-06
1.31472e-06
1.31274e-06
1.3128e-06
1.31284e-06
1.31287e-06
1.31288e-06
1.31287e-06
1.31284e-06
1.3128e-06
1.31274e-06
1.315e-06
1.31603e-06
1.31477e-06
1.31274e-06
1.31278e-06
1.31284e-06
1.31286e-06
1.31287e-06
1.31286e-06
1.31284e-06
1.31278e-06
1.31274e-06
1.31501e-06
1.31603e-06
1.31583e-06
1.31457e-06
1.31277e-06
1.31279e-06
1.31284e-06
1.31284e-06
1.31284e-06
1.31279e-06
1.31277e-06
1.31474e-06
1.31504e-06
1.31606e-06
1.31591e-06
1.31495e-06
1.31456e-06
1.31277e-06
1.31278e-06
1.3128e-06
1.31278e-06
1.31277e-06
1.31471e-06
1.31495e-06
1.31511e-06
1.31587e-06
1.31494e-06
1.31457e-06
1.31274e-06
1.31274e-06
1.31274e-06
1.31474e-06
1.31495e-06
1.31509e-06
1.31605e-06
1.31587e-06
1.31502e-06
1.31502e-06
1.315e-06
1.31501e-06
1.31504e-06
1.31511e-06
1.31605e-06
1.31595e-06
1.31604e-06
1.31603e-06
1.31603e-06
1.31606e-06
1.30455e-06
1.30345e-06
1.30338e-06
1.30343e-06
1.30448e-06
1.30457e-06
1.3046e-06
1.30361e-06
1.30308e-06
1.30137e-06
1.30137e-06
1.30137e-06
1.30321e-06
1.30359e-06
1.30452e-06
1.30361e-06
1.30305e-06
1.30138e-06
1.30139e-06
1.30141e-06
1.30139e-06
1.30138e-06
1.30319e-06
1.30359e-06
1.30453e-06
1.30455e-06
1.30308e-06
1.30138e-06
1.3014e-06
1.30143e-06
1.30143e-06
1.30143e-06
1.3014e-06
1.30138e-06
1.30321e-06
1.30367e-06
1.30461e-06
1.30345e-06
1.30137e-06
1.30139e-06
1.30143e-06
1.30144e-06
1.30145e-06
1.30144e-06
1.30143e-06
1.30139e-06
1.30137e-06
1.30367e-06
1.3047e-06
1.30338e-06
1.30137e-06
1.30141e-06
1.30143e-06
1.30145e-06
1.30146e-06
1.30145e-06
1.30143e-06
1.30141e-06
1.30137e-06
1.30364e-06
1.30468e-06
1.30343e-06
1.30137e-06
1.30139e-06
1.30143e-06
1.30144e-06
1.30145e-06
1.30144e-06
1.30143e-06
1.30139e-06
1.30137e-06
1.30366e-06
1.30469e-06
1.30448e-06
1.30321e-06
1.30138e-06
1.3014e-06
1.30143e-06
1.30143e-06
1.30143e-06
1.3014e-06
1.30138e-06
1.30338e-06
1.30369e-06
1.30471e-06
1.30457e-06
1.30359e-06
1.30319e-06
1.30138e-06
1.30139e-06
1.30141e-06
1.30139e-06
1.30138e-06
1.30335e-06
1.30359e-06
1.30377e-06
1.30452e-06
1.30359e-06
1.30321e-06
1.30137e-06
1.30137e-06
1.30137e-06
1.30338e-06
1.30359e-06
1.30374e-06
1.30471e-06
1.30453e-06
1.30367e-06
1.30367e-06
1.30364e-06
1.30366e-06
1.30369e-06
1.30377e-06
1.30471e-06
1.30461e-06
1.3047e-06
1.30468e-06
1.30469e-06
1.30471e-06
1.2932e-06
1.2921e-06
1.29203e-06
1.29208e-06
1.29314e-06
1.29323e-06
1.29325e-06
1.29226e-06
1.29172e-06
1.29001e-06
1.29001e-06
1.29001e-06
1.29186e-06
1.29224e-06
1.29318e-06
1.29226e-06
1.29169e-06
1.29002e-06
1.29003e-06
1.29003e-06
1.29003e-06
1.29002e-06
1.29183e-06
1.29224e-06
1.29318e-06
1.2932e-06
1.29172e-06
1.29002e-06
1.29003e-06
1.29004e-06
1.29005e-06
1.29004e-06
1.29003e-06
1.29002e-06
1.29185e-06
1.29232e-06
1.29326e-06
1.2921e-06
1.29001e-06
1.29003e-06
1.29004e-06
1.29006e-06
1.29006e-06
1.29006e-06
1.29004e-06
1.29003e-06
1.29001e-06
1.29232e-06
1.29335e-06
1.29203e-06
1.29001e-06
1.29003e-06
1.29005e-06
1.29006e-06
1.29007e-06
1.29006e-06
1.29005e-06
1.29003e-06
1.29001e-06
1.29229e-06
1.29334e-06
1.29208e-06
1.29001e-06
1.29003e-06
1.29004e-06
1.29005e-06
1.29006e-06
1.29005e-06
1.29004e-06
1.29003e-06
1.29001e-06
1.29231e-06
1.29334e-06
1.29314e-06
1.29186e-06
1.29002e-06
1.29003e-06
1.29004e-06
1.29005e-06
1.29004e-06
1.29003e-06
1.29002e-06
1.29203e-06
1.29234e-06
1.29337e-06
1.29323e-06
1.29224e-06
1.29183e-06
1.29002e-06
1.29003e-06
1.29003e-06
1.29003e-06
1.29002e-06
1.292e-06
1.29225e-06
1.29242e-06
1.29318e-06
1.29224e-06
1.29185e-06
1.29001e-06
1.29001e-06
1.29001e-06
1.29203e-06
1.29225e-06
1.2924e-06
1.29336e-06
1.29318e-06
1.29232e-06
1.29232e-06
1.29229e-06
1.29231e-06
1.29234e-06
1.29242e-06
1.29336e-06
1.29326e-06
1.29335e-06
1.29334e-06
1.29334e-06
1.29337e-06
1.28185e-06
1.28076e-06
1.28068e-06
1.28073e-06
1.28179e-06
1.28188e-06
1.2819e-06
1.28091e-06
1.28037e-06
1.27866e-06
1.27866e-06
1.27866e-06
1.28051e-06
1.2809e-06
1.28183e-06
1.28091e-06
1.28034e-06
1.27866e-06
1.27867e-06
1.27867e-06
1.27867e-06
1.27866e-06
1.28048e-06
1.28089e-06
1.28184e-06
1.28185e-06
1.28037e-06
1.27866e-06
1.27867e-06
1.27868e-06
1.27868e-06
1.27868e-06
1.27867e-06
1.27866e-06
1.2805e-06
1.28098e-06
1.28191e-06
1.28076e-06
1.27866e-06
1.27867e-06
1.27868e-06
1.27868e-06
1.27869e-06
1.27868e-06
1.27868e-06
1.27867e-06
1.27866e-06
1.28097e-06
1.28201e-06
1.28068e-06
1.27866e-06
1.27867e-06
1.27868e-06
1.27869e-06
1.27869e-06
1.27869e-06
1.27868e-06
1.27867e-06
1.27866e-06
1.28094e-06
1.28199e-06
1.28073e-06
1.27866e-06
1.27867e-06
1.27868e-06
1.27868e-06
1.27869e-06
1.27868e-06
1.27868e-06
1.27867e-06
1.27866e-06
1.28096e-06
1.28199e-06
1.28179e-06
1.28051e-06
1.27866e-06
1.27867e-06
1.27868e-06
1.27868e-06
1.27868e-06
1.27867e-06
1.27866e-06
1.28068e-06
1.281e-06
1.28202e-06
1.28188e-06
1.2809e-06
1.28048e-06
1.27866e-06
1.27867e-06
1.27867e-06
1.27867e-06
1.27866e-06
1.28065e-06
1.2809e-06
1.28108e-06
1.28183e-06
1.28089e-06
1.2805e-06
1.27866e-06
1.27866e-06
1.27866e-06
1.28068e-06
1.2809e-06
1.28105e-06
1.28201e-06
1.28184e-06
1.28098e-06
1.28097e-06
1.28094e-06
1.28096e-06
1.281e-06
1.28108e-06
1.28201e-06
1.28191e-06
1.28201e-06
1.28199e-06
1.28199e-06
1.28202e-06
1.2705e-06
1.26941e-06
1.26933e-06
1.26938e-06
1.27044e-06
1.27053e-06
1.27056e-06
1.26956e-06
1.26902e-06
1.26731e-06
1.26731e-06
1.26731e-06
1.26916e-06
1.26955e-06
1.27048e-06
1.26956e-06
1.26899e-06
1.26731e-06
1.26731e-06
1.26731e-06
1.26731e-06
1.26731e-06
1.26913e-06
1.26954e-06
1.27049e-06
1.2705e-06
1.26902e-06
1.26731e-06
1.26731e-06
1.26732e-06
1.26732e-06
1.26732e-06
1.26731e-06
1.26731e-06
1.26915e-06
1.26963e-06
1.27057e-06
1.26941e-06
1.26731e-06
1.26731e-06
1.26732e-06
1.26732e-06
1.26732e-06
1.26732e-06
1.26732e-06
1.26731e-06
1.26731e-06
1.26962e-06
1.27066e-06
1.26933e-06
1.26731e-06
1.26731e-06
1.26732e-06
1.26732e-06
1.26732e-06
1.26732e-06
1.26732e-06
1.26731e-06
1.26731e-06
1.26959e-06
1.27064e-06
1.26938e-06
1.26731e-06
1.26731e-06
1.26732e-06
1.26732e-06
1.26732e-06
1.26732e-06
1.26732e-06
1.26731e-06
1.26731e-06
1.26961e-06
1.27064e-06
1.27044e-06
1.26916e-06
1.26731e-06
1.26731e-06
1.26732e-06
1.26732e-06
1.26732e-06
1.26731e-06
1.26731e-06
1.26933e-06
1.26965e-06
1.27067e-06
1.27053e-06
1.26955e-06
1.26913e-06
1.26731e-06
1.26731e-06
1.26731e-06
1.26731e-06
1.26731e-06
1.2693e-06
1.26955e-06
1.26973e-06
1.27048e-06
1.26954e-06
1.26915e-06
1.26731e-06
1.26731e-06
1.26731e-06
1.26933e-06
1.26955e-06
1.2697e-06
1.27066e-06
1.27049e-06
1.26963e-06
1.26962e-06
1.26959e-06
1.26961e-06
1.26965e-06
1.26973e-06
1.27066e-06
1.27057e-06
1.27066e-06
1.27064e-06
1.27064e-06
1.27067e-06
1.25916e-06
1.25806e-06
1.25798e-06
1.25803e-06
1.25909e-06
1.25918e-06
1.25921e-06
1.25821e-06
1.25767e-06
1.25596e-06
1.25596e-06
1.25596e-06
1.25781e-06
1.2582e-06
1.25913e-06
1.25821e-06
1.25764e-06
1.25596e-06
1.25596e-06
1.25596e-06
1.25596e-06
1.25596e-06
1.25778e-06
1.25819e-06
1.25914e-06
1.25916e-06
1.25767e-06
1.25596e-06
1.25596e-06
1.25596e-06
1.25596e-06
1.25596e-06
1.25596e-06
1.25596e-06
1.25781e-06
1.25828e-06
1.25922e-06
1.25806e-06
1.25596e-06
1.25596e-06
1.25596e-06
1.25597e-06
1.25597e-06
1.25597e-06
1.25596e-06
1.25596e-06
1.25596e-06
1.25827e-06
1.25931e-06
1.25798e-06
1.25596e-06
1.25596e-06
1.25596e-06
1.25597e-06
1.25597e-06
1.25597e-06
1.25596e-06
1.25596e-06
1.25596e-06
1.25825e-06
1.25929e-06
1.25803e-06
1.25596e-06
1.25596e-06
1.25596e-06
1.25597e-06
1.25597e-06
1.25597e-06
1.25596e-06
1.25596e-06
1.25596e-06
1.25826e-06
1.25929e-06
1.25909e-06
1.25781e-06
1.25596e-06
1.25596e-06
1.25596e-06
1.25596e-06
1.25596e-06
1.25596e-06
1.25596e-06
1.25798e-06
1.2583e-06
1.25932e-06
1.25918e-06
1.2582e-06
1.25778e-06
1.25596e-06
1.25596e-06
1.25596e-06
1.25596e-06
1.25596e-06
1.25795e-06
1.2582e-06
1.25838e-06
1.25913e-06
1.25819e-06
1.25781e-06
1.25596e-06
1.25596e-06
1.25596e-06
1.25798e-06
1.2582e-06
1.25835e-06
1.25932e-06
1.25914e-06
1.25828e-06
1.25827e-06
1.25825e-06
1.25826e-06
1.2583e-06
1.25838e-06
1.25932e-06
1.25922e-06
1.25931e-06
1.25929e-06
1.25929e-06
1.25932e-06
1.24781e-06
1.24671e-06
1.24663e-06
1.24668e-06
1.24774e-06
1.24783e-06
1.24786e-06
1.24686e-06
1.24632e-06
1.24461e-06
1.24461e-06
1.24461e-06
1.24646e-06
1.24685e-06
1.24778e-06
1.24686e-06
1.24629e-06
1.24461e-06
1.24461e-06
1.24461e-06
1.24461e-06
1.24461e-06
1.24643e-06
1.24684e-06
1.24779e-06
1.24781e-06
1.24632e-06
1.24461e-06
1.24461e-06
1.24461e-06
1.24461e-06
1.24461e-06
1.24461e-06
1.24461e-06
1.24646e-06
1.24693e-06
1.24787e-06
1.24671e-06
1.24461e-06
1.24461e-06
1.24461e-06
1.24461e-06
1.24461e-06
1.24461e-06
1.24461e-06
1.24461e-06
1.24461e-06
1.24692e-06
1.24796e-06
1.24663e-06
1.24461e-06
1.24461e-06
1.24461e-06
1.24461e-06
1.24461e-06
1.24461e-06
1.24461e-06
1.24461e-06
1.24461e-06
1.2469e-06
1.24794e-06
1.24668e-06
1.24461e-06
1.24461e-06
1.24461e-06
1.24461e-06
1.24461e-06
1.24461e-06
1.24461e-06
1.24461e-06
1.24461e-06
1.24691e-06
1.24794e-06
1.24774e-06
1.24646e-06
1.24461e-06
1.24461e-06
1.24461e-06
1.24461e-06
1.24461e-06
1.24461e-06
1.24461e-06
1.24663e-06
1.24695e-06
1.24797e-06
1.24783e-06
1.24685e-06
1.24643e-06
1.24461e-06
1.24461e-06
1.24461e-06
1.24461e-06
1.24461e-06
1.2466e-06
1.24685e-06
1.24703e-06
1.24778e-06
1.24684e-06
1.24646e-06
1.24461e-06
1.24461e-06
1.24461e-06
1.24663e-06
1.24685e-06
1.247e-06
1.24797e-06
1.24779e-06
1.24693e-06
1.24692e-06
1.2469e-06
1.24691e-06
1.24695e-06
1.24703e-06
1.24797e-06
1.24787e-06
1.24796e-06
1.24794e-06
1.24794e-06
1.24797e-06
1.23646e-06
1.23536e-06
1.23528e-06
1.23533e-06
1.23639e-06
1.23648e-06
1.23651e-06
1.23551e-06
1.23498e-06
1.23326e-06
1.23326e-06
1.23326e-06
1.23511e-06
1.2355e-06
1.23644e-06
1.23551e-06
1.23494e-06
1.23326e-06
1.23326e-06
1.23326e-06
1.23326e-06
1.23326e-06
1.23508e-06
1.2355e-06
1.23644e-06
1.23646e-06
1.23498e-06
1.23326e-06
1.23326e-06
1.23326e-06
1.23326e-06
1.23326e-06
1.23326e-06
1.23326e-06
1.23511e-06
1.23558e-06
1.23652e-06
1.23536e-06
1.23326e-06
1.23326e-06
1.23326e-06
1.23326e-06
1.23326e-06
1.23326e-06
1.23326e-06
1.23326e-06
1.23326e-06
1.23557e-06
1.23661e-06
1.23528e-06
1.23326e-06
1.23326e-06
1.23326e-06
1.23326e-06
1.23326e-06
1.23326e-06
1.23326e-06
1.23326e-06
1.23326e-06
1.23555e-06
1.23659e-06
1.23533e-06
1.23326e-06
1.23326e-06
1.23326e-06
1.23326e-06
1.23326e-06
1.23326e-06
1.23326e-06
1.23326e-06
1.23326e-06
1.23556e-06
1.2366e-06
1.23639e-06
1.23511e-06
1.23326e-06
1.23326e-06
1.23326e-06
1.23326e-06
1.23326e-06
1.23326e-06
1.23326e-06
1.23529e-06
1.2356e-06
1.23663e-06
1.23648e-06
1.2355e-06
1.23508e-06
1.23326e-06
1.23326e-06
1.23326e-06
1.23326e-06
1.23326e-06
1.23525e-06
1.2355e-06
1.23568e-06
1.23644e-06
1.2355e-06
1.23511e-06
1.23326e-06
1.23326e-06
1.23326e-06
1.23529e-06
1.2355e-06
1.23565e-06
1.23662e-06
1.23644e-06
1.23558e-06
1.23557e-06
1.23555e-06
1.23556e-06
1.2356e-06
1.23568e-06
1.23662e-06
1.23652e-06
1.23661e-06
1.23659e-06
1.2366e-06
1.23663e-06
1.22511e-06
1.22401e-06
1.22393e-06
1.22398e-06
1.22504e-06
1.22514e-06
1.22516e-06
1.22416e-06
1.22363e-06
1.22191e-06
1.22191e-06
1.22191e-06
1.22376e-06
1.22415e-06
1.22509e-06
1.22416e-06
1.22359e-06
1.22191e-06
1.22191e-06
1.22191e-06
1.22191e-06
1.22191e-06
1.22373e-06
1.22415e-06
1.22509e-06
1.22511e-06
1.22363e-06
1.22191e-06
1.22191e-06
1.22191e-06
1.22191e-06
1.22191e-06
1.22191e-06
1.22191e-06
1.22376e-06
1.22423e-06
1.22517e-06
1.22401e-06
1.22191e-06
1.22191e-06
1.22191e-06
1.22191e-06
1.22191e-06
1.22191e-06
1.22191e-06
1.22191e-06
1.22191e-06
1.22423e-06
1.22526e-06
1.22393e-06
1.22191e-06
1.22191e-06
1.22191e-06
1.22191e-06
1.22191e-06
1.22191e-06
1.22191e-06
1.22191e-06
1.22191e-06
1.2242e-06
1.22524e-06
1.22398e-06
1.22191e-06
1.22191e-06
1.22191e-06
1.22191e-06
1.22191e-06
1.22191e-06
1.22191e-06
1.22191e-06
1.22191e-06
1.22421e-06
1.22525e-06
1.22505e-06
1.22376e-06
1.22191e-06
1.22191e-06
1.22191e-06
1.22191e-06
1.22191e-06
1.22191e-06
1.22191e-06
1.22394e-06
1.22425e-06
1.22528e-06
1.22514e-06
1.22415e-06
1.22373e-06
1.22191e-06
1.22191e-06
1.22191e-06
1.22191e-06
1.22191e-06
1.2239e-06
1.22415e-06
1.22433e-06
1.22509e-06
1.22415e-06
1.22376e-06
1.22191e-06
1.22191e-06
1.22191e-06
1.22394e-06
1.22415e-06
1.22431e-06
1.22527e-06
1.22509e-06
1.22423e-06
1.22423e-06
1.2242e-06
1.22421e-06
1.22425e-06
1.22433e-06
1.22527e-06
1.22517e-06
1.22526e-06
1.22524e-06
1.22525e-06
1.22528e-06
1.21376e-06
1.21266e-06
1.21258e-06
1.21263e-06
1.2137e-06
1.21379e-06
1.21381e-06
1.21282e-06
1.21228e-06
1.21056e-06
1.21056e-06
1.21056e-06
1.21241e-06
1.2128e-06
1.21374e-06
1.21282e-06
1.21225e-06
1.21056e-06
1.21056e-06
1.21056e-06
1.21056e-06
1.21056e-06
1.21239e-06
1.2128e-06
1.21374e-06
1.21376e-06
1.21228e-06
1.21056e-06
1.21056e-06
1.21056e-06
1.21056e-06
1.21056e-06
1.21056e-06
1.21056e-06
1.21241e-06
1.21288e-06
1.21382e-06
1.21266e-06
1.21056e-06
1.21056e-06
1.21056e-06
1.21056e-06
1.21056e-06
1.21056e-06
1.21056e-06
1.21056e-06
1.21056e-06
1.21288e-06
1.21391e-06
1.21258e-06
1.21056e-06
1.21056e-06
1.21056e-06
1.21056e-06
1.21056e-06
1.21056e-06
1.21056e-06
1.21056e-06
1.21056e-06
1.21285e-06
1.2139e-06
1.21263e-06
1.21056e-06
1.21056e-06
1.21056e-06
1.21056e-06
1.21056e-06
1.21056e-06
1.21056e-06
1.21056e-06
1.21056e-06
1.21286e-06
1.2139e-06
1.2137e-06
1.21241e-06
1.21056e-06
1.21056e-06
1.21056e-06
1.21056e-06
1.21056e-06
1.21056e-06
1.21056e-06
1.21259e-06
1.2129e-06
1.21393e-06
1.21379e-06
1.2128e-06
1.21239e-06
1.21056e-06
1.21056e-06
1.21056e-06
1.21056e-06
1.21056e-06
1.21255e-06
1.2128e-06
1.21298e-06
1.21374e-06
1.2128e-06
1.21241e-06
1.21056e-06
1.21056e-06
1.21056e-06
1.21259e-06
1.2128e-06
1.21296e-06
1.21392e-06
1.21374e-06
1.21288e-06
1.21288e-06
1.21285e-06
1.21286e-06
1.2129e-06
1.21298e-06
1.21392e-06
1.21382e-06
1.21391e-06
1.2139e-06
1.2139e-06
1.21393e-06
1.20241e-06
1.20131e-06
1.20123e-06
1.20128e-06
1.20235e-06
1.20244e-06
1.20246e-06
1.20147e-06
1.20093e-06
1.19921e-06
1.19921e-06
1.19921e-06
1.20106e-06
1.20145e-06
1.20239e-06
1.20147e-06
1.2009e-06
1.19921e-06
1.19921e-06
1.19921e-06
1.19921e-06
1.19921e-06
1.20104e-06
1.20145e-06
1.20239e-06
1.20241e-06
1.20093e-06
1.19921e-06
1.19921e-06
1.19921e-06
1.19921e-06
1.19921e-06
1.19921e-06
1.19921e-06
1.20106e-06
1.20153e-06
1.20247e-06
1.20131e-06
1.19921e-06
1.19921e-06
1.19921e-06
1.19921e-06
1.19921e-06
1.19921e-06
1.19921e-06
1.19921e-06
1.19921e-06
1.20153e-06
1.20256e-06
1.20123e-06
1.19921e-06
1.19921e-06
1.19921e-06
1.19921e-06
1.19921e-06
1.19921e-06
1.19921e-06
1.19921e-06
1.19921e-06
1.2015e-06
1.20255e-06
1.20129e-06
1.19921e-06
1.19921e-06
1.19921e-06
1.19921e-06
1.19921e-06
1.19921e-06
1.19921e-06
1.19921e-06
1.19921e-06
1.20151e-06
1.20255e-06
1.20235e-06
1.20106e-06
1.19921e-06
1.19921e-06
1.19921e-06
1.19921e-06
1.19921e-06
1.19921e-06
1.19921e-06
1.20124e-06
1.20155e-06
1.20258e-06
1.20244e-06
1.20145e-06
1.20104e-06
1.19921e-06
1.19921e-06
1.19921e-06
1.19921e-06
1.19921e-06
1.2012e-06
1.20145e-06
1.20163e-06
1.20239e-06
1.20145e-06
1.20106e-06
1.19921e-06
1.19921e-06
1.19921e-06
1.20124e-06
1.20145e-06
1.20161e-06
1.20257e-06
1.20239e-06
1.20153e-06
1.20153e-06
1.2015e-06
1.20151e-06
1.20155e-06
1.20163e-06
1.20257e-06
1.20247e-06
1.20256e-06
1.20255e-06
1.20255e-06
1.20258e-06
1.19106e-06
1.18996e-06
1.18989e-06
1.18994e-06
1.191e-06
1.19109e-06
1.19111e-06
1.19012e-06
1.18958e-06
1.18786e-06
1.18786e-06
1.18786e-06
1.18971e-06
1.1901e-06
1.19104e-06
1.19012e-06
1.18955e-06
1.18786e-06
1.18786e-06
1.18786e-06
1.18786e-06
1.18786e-06
1.18969e-06
1.1901e-06
1.19105e-06
1.19106e-06
1.18958e-06
1.18786e-06
1.18786e-06
1.18786e-06
1.18786e-06
1.18786e-06
1.18786e-06
1.18786e-06
1.18971e-06
1.19018e-06
1.19112e-06
1.18996e-06
1.18786e-06
1.18786e-06
1.18786e-06
1.18786e-06
1.18786e-06
1.18786e-06
1.18786e-06
1.18786e-06
1.18786e-06
1.19018e-06
1.19121e-06
1.18989e-06
1.18786e-06
1.18786e-06
1.18786e-06
1.18786e-06
1.18786e-06
1.18786e-06
1.18786e-06
1.18786e-06
1.18786e-06
1.19015e-06
1.1912e-06
1.18994e-06
1.18786e-06
1.18786e-06
1.18786e-06
1.18786e-06
1.18786e-06
1.18786e-06
1.18786e-06
1.18786e-06
1.18786e-06
1.19016e-06
1.1912e-06
1.191e-06
1.18971e-06
1.18786e-06
1.18786e-06
1.18786e-06
1.18786e-06
1.18786e-06
1.18786e-06
1.18786e-06
1.18989e-06
1.19021e-06
1.19123e-06
1.19109e-06
1.1901e-06
1.18969e-06
1.18786e-06
1.18786e-06
1.18786e-06
1.18786e-06
1.18786e-06
1.18985e-06
1.19011e-06
1.19029e-06
1.19104e-06
1.1901e-06
1.18971e-06
1.18786e-06
1.18786e-06
1.18786e-06
1.18989e-06
1.1901e-06
1.19026e-06
1.19122e-06
1.19105e-06
1.19018e-06
1.19018e-06
1.19015e-06
1.19016e-06
1.19021e-06
1.19029e-06
1.19122e-06
1.19112e-06
1.19121e-06
1.1912e-06
1.1912e-06
1.19123e-06
1.17971e-06
1.17861e-06
1.17854e-06
1.17859e-06
1.17965e-06
1.17974e-06
1.17976e-06
1.17877e-06
1.17823e-06
1.17651e-06
1.17651e-06
1.17651e-06
1.17837e-06
1.17875e-06
1.17969e-06
1.17877e-06
1.1782e-06
1.17651e-06
1.17651e-06
1.17651e-06
1.17651e-06
1.17651e-06
1.17834e-06
1.17875e-06
1.1797e-06
1.17971e-06
1.17823e-06
1.17651e-06
1.17651e-06
1.17651e-06
1.17651e-06
1.17651e-06
1.17651e-06
1.17651e-06
1.17836e-06
1.17884e-06
1.17977e-06
1.17861e-06
1.17651e-06
1.17651e-06
1.17651e-06
1.17651e-06
1.17651e-06
1.17651e-06
1.17651e-06
1.17651e-06
1.17651e-06
1.17883e-06
1.17987e-06
1.17854e-06
1.17651e-06
1.17651e-06
1.17651e-06
1.17651e-06
1.17651e-06
1.17651e-06
1.17651e-06
1.17651e-06
1.17651e-06
1.1788e-06
1.17985e-06
1.17859e-06
1.17651e-06
1.17651e-06
1.17651e-06
1.17651e-06
1.17651e-06
1.17651e-06
1.17651e-06
1.17651e-06
1.17651e-06
1.17881e-06
1.17985e-06
1.17965e-06
1.17837e-06
1.17651e-06
1.17651e-06
1.17651e-06
1.17651e-06
1.17651e-06
1.17651e-06
1.17651e-06
1.17854e-06
1.17886e-06
1.17988e-06
1.17974e-06
1.17875e-06
1.17834e-06
1.17651e-06
1.17651e-06
1.17651e-06
1.17651e-06
1.17651e-06
1.1785e-06
1.17876e-06
1.17894e-06
1.17969e-06
1.17875e-06
1.17836e-06
1.17651e-06
1.17651e-06
1.17651e-06
1.17854e-06
1.17876e-06
1.17891e-06
1.17987e-06
1.1797e-06
1.17884e-06
1.17883e-06
1.1788e-06
1.17881e-06
1.17886e-06
1.17894e-06
1.17987e-06
1.17977e-06
1.17987e-06
1.17985e-06
1.17985e-06
1.17988e-06
1.16836e-06
1.16727e-06
1.16719e-06
1.16724e-06
1.1683e-06
1.16839e-06
1.16842e-06
1.16742e-06
1.16688e-06
1.16516e-06
1.16517e-06
1.16516e-06
1.16702e-06
1.16741e-06
1.16834e-06
1.16742e-06
1.16685e-06
1.16516e-06
1.16517e-06
1.16517e-06
1.16517e-06
1.16516e-06
1.16699e-06
1.1674e-06
1.16835e-06
1.16836e-06
1.16688e-06
1.16516e-06
1.16517e-06
1.16516e-06
1.16517e-06
1.16516e-06
1.16517e-06
1.16516e-06
1.16701e-06
1.16749e-06
1.16842e-06
1.16727e-06
1.16516e-06
1.16517e-06
1.16516e-06
1.16517e-06
1.16517e-06
1.16517e-06
1.16516e-06
1.16517e-06
1.16516e-06
1.16748e-06
1.16852e-06
1.16719e-06
1.16517e-06
1.16517e-06
1.16517e-06
1.16517e-06
1.16517e-06
1.16517e-06
1.16517e-06
1.16517e-06
1.16517e-06
1.16745e-06
1.1685e-06
1.16724e-06
1.16516e-06
1.16517e-06
1.16516e-06
1.16517e-06
1.16517e-06
1.16517e-06
1.16516e-06
1.16517e-06
1.16516e-06
1.16747e-06
1.1685e-06
1.1683e-06
1.16702e-06
1.16516e-06
1.16517e-06
1.16516e-06
1.16517e-06
1.16516e-06
1.16517e-06
1.16516e-06
1.16719e-06
1.16751e-06
1.16853e-06
1.16839e-06
1.16741e-06
1.16699e-06
1.16516e-06
1.16517e-06
1.16517e-06
1.16517e-06
1.16516e-06
1.16715e-06
1.16741e-06
1.16759e-06
1.16834e-06
1.1674e-06
1.16701e-06
1.16516e-06
1.16517e-06
1.16516e-06
1.16719e-06
1.16741e-06
1.16756e-06
1.16852e-06
1.16835e-06
1.16749e-06
1.16748e-06
1.16745e-06
1.16747e-06
1.16751e-06
1.16759e-06
1.16852e-06
1.16842e-06
1.16852e-06
1.1685e-06
1.1685e-06
1.16853e-06
1.15701e-06
1.15592e-06
1.15584e-06
1.15589e-06
1.15695e-06
1.15704e-06
1.15707e-06
1.15607e-06
1.15553e-06
1.15382e-06
1.15382e-06
1.15382e-06
1.15567e-06
1.15606e-06
1.15699e-06
1.15607e-06
1.1555e-06
1.15382e-06
1.15382e-06
1.15382e-06
1.15382e-06
1.15382e-06
1.15564e-06
1.15605e-06
1.157e-06
1.15701e-06
1.15553e-06
1.15382e-06
1.15382e-06
1.15382e-06
1.15382e-06
1.15382e-06
1.15382e-06
1.15382e-06
1.15566e-06
1.15614e-06
1.15708e-06
1.15592e-06
1.15382e-06
1.15382e-06
1.15382e-06
1.15382e-06
1.15382e-06
1.15382e-06
1.15382e-06
1.15382e-06
1.15382e-06
1.15613e-06
1.15717e-06
1.15584e-06
1.15382e-06
1.15382e-06
1.15382e-06
1.15382e-06
1.15382e-06
1.15382e-06
1.15382e-06
1.15382e-06
1.15382e-06
1.1561e-06
1.15715e-06
1.15589e-06
1.15382e-06
1.15382e-06
1.15382e-06
1.15382e-06
1.15382e-06
1.15382e-06
1.15382e-06
1.15382e-06
1.15382e-06
1.15612e-06
1.15715e-06
1.15695e-06
1.15567e-06
1.15382e-06
1.15382e-06
1.15382e-06
1.15382e-06
1.15382e-06
1.15382e-06
1.15382e-06
1.15584e-06
1.15616e-06
1.15718e-06
1.15704e-06
1.15606e-06
1.15564e-06
1.15382e-06
1.15382e-06
1.15382e-06
1.15382e-06
1.15382e-06
1.1558e-06
1.15606e-06
1.15624e-06
1.15699e-06
1.15605e-06
1.15566e-06
1.15382e-06
1.15382e-06
1.15382e-06
1.15584e-06
1.15606e-06
1.15621e-06
1.15717e-06
1.157e-06
1.15614e-06
1.15613e-06
1.1561e-06
1.15612e-06
1.15616e-06
1.15624e-06
1.15717e-06
1.15708e-06
1.15717e-06
1.15715e-06
1.15715e-06
1.15718e-06
1.14567e-06
1.14457e-06
1.14449e-06
1.14454e-06
1.1456e-06
1.14569e-06
1.14572e-06
1.14472e-06
1.14418e-06
1.14247e-06
1.14247e-06
1.14247e-06
1.14432e-06
1.14471e-06
1.14564e-06
1.14472e-06
1.14415e-06
1.14247e-06
1.14247e-06
1.14247e-06
1.14247e-06
1.14247e-06
1.14429e-06
1.1447e-06
1.14565e-06
1.14567e-06
1.14418e-06
1.14247e-06
1.14247e-06
1.14247e-06
1.14247e-06
1.14247e-06
1.14247e-06
1.14247e-06
1.14431e-06
1.14479e-06
1.14573e-06
1.14457e-06
1.14247e-06
1.14247e-06
1.14247e-06
1.14247e-06
1.14247e-06
1.14247e-06
1.14247e-06
1.14247e-06
1.14247e-06
1.14478e-06
1.14582e-06
1.14449e-06
1.14247e-06
1.14247e-06
1.14247e-06
1.14247e-06
1.14247e-06
1.14247e-06
1.14247e-06
1.14247e-06
1.14247e-06
1.14475e-06
1.1458e-06
1.14454e-06
1.14247e-06
1.14247e-06
1.14247e-06
1.14247e-06
1.14247e-06
1.14247e-06
1.14247e-06
1.14247e-06
1.14247e-06
1.14477e-06
1.1458e-06
1.1456e-06
1.14432e-06
1.14247e-06
1.14247e-06
1.14247e-06
1.14247e-06
1.14247e-06
1.14247e-06
1.14247e-06
1.14449e-06
1.14481e-06
1.14583e-06
1.14569e-06
1.14471e-06
1.14429e-06
1.14247e-06
1.14247e-06
1.14247e-06
1.14247e-06
1.14247e-06
1.14446e-06
1.14471e-06
1.14489e-06
1.14564e-06
1.1447e-06
1.14431e-06
1.14247e-06
1.14247e-06
1.14247e-06
1.14449e-06
1.14471e-06
1.14486e-06
1.14583e-06
1.14565e-06
1.14479e-06
1.14478e-06
1.14475e-06
1.14477e-06
1.14481e-06
1.14489e-06
1.14583e-06
1.14573e-06
1.14582e-06
1.1458e-06
1.1458e-06
1.14583e-06
1.13432e-06
1.13322e-06
1.13314e-06
1.13319e-06
1.13425e-06
1.13434e-06
1.13437e-06
1.13337e-06
1.13283e-06
1.13112e-06
1.13112e-06
1.13112e-06
1.13297e-06
1.13336e-06
1.13429e-06
1.13337e-06
1.1328e-06
1.13112e-06
1.13112e-06
1.13112e-06
1.13112e-06
1.13112e-06
1.13294e-06
1.13335e-06
1.1343e-06
1.13432e-06
1.13283e-06
1.13112e-06
1.13112e-06
1.13112e-06
1.13112e-06
1.13112e-06
1.13112e-06
1.13112e-06
1.13297e-06
1.13344e-06
1.13438e-06
1.13322e-06
1.13112e-06
1.13112e-06
1.13112e-06
1.13112e-06
1.13112e-06
1.13112e-06
1.13112e-06
1.13112e-06
1.13112e-06
1.13343e-06
1.13447e-06
1.13314e-06
1.13112e-06
1.13112e-06
1.13112e-06
1.13112e-06
1.13112e-06
1.13112e-06
1.13112e-06
1.13112e-06
1.13112e-06
1.13341e-06
1.13445e-06
1.13319e-06
1.13112e-06
1.13112e-06
1.13112e-06
1.13112e-06
1.13112e-06
1.13112e-06
1.13112e-06
1.13112e-06
1.13112e-06
1.13342e-06
1.13445e-06
1.13425e-06
1.13297e-06
1.13112e-06
1.13112e-06
1.13112e-06
1.13112e-06
1.13112e-06
1.13112e-06
1.13112e-06
1.13314e-06
1.13346e-06
1.13448e-06
1.13434e-06
1.13336e-06
1.13294e-06
1.13112e-06
1.13112e-06
1.13112e-06
1.13112e-06
1.13112e-06
1.13311e-06
1.13336e-06
1.13354e-06
1.13429e-06
1.13335e-06
1.13297e-06
1.13112e-06
1.13112e-06
1.13112e-06
1.13314e-06
1.13336e-06
1.13351e-06
1.13448e-06
1.1343e-06
1.13344e-06
1.13343e-06
1.13341e-06
1.13342e-06
1.13346e-06
1.13354e-06
1.13448e-06
1.13438e-06
1.13447e-06
1.13445e-06
1.13445e-06
1.13448e-06
1.12297e-06
1.12187e-06
1.12179e-06
1.12184e-06
1.1229e-06
1.12299e-06
1.12302e-06
1.12202e-06
1.12148e-06
1.11977e-06
1.11977e-06
1.11977e-06
1.12162e-06
1.12201e-06
1.12295e-06
1.12202e-06
1.12145e-06
1.11977e-06
1.11977e-06
1.11977e-06
1.11977e-06
1.11977e-06
1.12159e-06
1.122e-06
1.12295e-06
1.12297e-06
1.12148e-06
1.11977e-06
1.11977e-06
1.11977e-06
1.11977e-06
1.11977e-06
1.11977e-06
1.11977e-06
1.12162e-06
1.12209e-06
1.12303e-06
1.12187e-06
1.11977e-06
1.11977e-06
1.11977e-06
1.11977e-06
1.11977e-06
1.11977e-06
1.11977e-06
1.11977e-06
1.11977e-06
1.12208e-06
1.12312e-06
1.12179e-06
1.11977e-06
1.11977e-06
1.11977e-06
1.11977e-06
1.11977e-06
1.11977e-06
1.11977e-06
1.11977e-06
1.11977e-06
1.12206e-06
1.1231e-06