/*--------------------------------*- C++ -*----------------------------------*\
| =========                 |                                                 |
| \\      /  F ield         | OpenFOAM: The Open Source CFD Toolbox           |
|  \\    /   O peration     | Version:  v2012                                 |
|   \\  /    A nd           | Website:  www.openfoam.com                      |
|    \\/     M anipulation  |                                                 |
\*---------------------------------------------------------------------------*/
FoamFile
{
    version     2.0;
    format      ascii;
    class       volScalarField;
    location    "51";
    object      p;
}
// * * * * * * * * * * * * * * * * * * * * * * * * * * * * * * * * * * * * * //

dimensions      [0 2 -2 0 0 0 0];


internalField   nonuniform List<scalar> 
292667
(
1.18805e-06
1.17866e-06
1.1779e-06
1.17797e-06
1.17901e-06
1.18895e-06
1.17887e-06
1.17625e-06
1.17471e-06
1.17408e-06
1.17416e-06
1.17499e-06
1.17675e-06
1.17962e-06
1.17887e-06
1.17548e-06
1.17336e-06
1.1722e-06
1.17171e-06
1.17177e-06
1.17241e-06
1.17376e-06
1.17615e-06
1.17983e-06
1.18805e-06
1.17625e-06
1.17336e-06
1.17165e-06
1.17069e-06
1.17028e-06
1.17034e-06
1.17087e-06
1.17198e-06
1.17393e-06
1.17716e-06
1.18768e-06
1.17866e-06
1.17471e-06
1.1722e-06
1.17069e-06
1.16984e-06
1.16947e-06
1.16952e-06
1.17e-06
1.17099e-06
1.1727e-06
1.17555e-06
1.18228e-06
1.1779e-06
1.17408e-06
1.17171e-06
1.17028e-06
1.16947e-06
1.16912e-06
1.16917e-06
1.16962e-06
1.17057e-06
1.17219e-06
1.17489e-06
1.18064e-06
1.17797e-06
1.17416e-06
1.17177e-06
1.17034e-06
1.16952e-06
1.16917e-06
1.16921e-06
1.16968e-06
1.17063e-06
1.17227e-06
1.17499e-06
1.18096e-06
1.17901e-06
1.17499e-06
1.17241e-06
1.17087e-06
1.17e-06
1.16962e-06
1.16968e-06
1.17017e-06
1.17118e-06
1.17294e-06
1.17587e-06
1.1826e-06
1.18895e-06
1.17675e-06
1.17376e-06
1.17198e-06
1.17099e-06
1.17057e-06
1.17063e-06
1.17118e-06
1.17234e-06
1.17438e-06
1.17772e-06
1.18758e-06
1.17962e-06
1.17615e-06
1.17393e-06
1.1727e-06
1.17219e-06
1.17227e-06
1.17294e-06
1.17438e-06
1.1769e-06
1.18324e-06
1.17983e-06
1.17716e-06
1.17555e-06
1.17489e-06
1.17499e-06
1.17587e-06
1.17772e-06
1.18324e-06
1.18768e-06
1.18228e-06
1.18064e-06
1.18096e-06
1.1826e-06
1.18758e-06
1.16173e-06
1.16088e-06
1.16085e-06
1.16089e-06
1.16171e-06
1.1616e-06
1.16178e-06
1.16111e-06
1.16073e-06
1.15936e-06
1.15933e-06
1.15936e-06
1.16089e-06
1.16115e-06
1.1618e-06
1.16111e-06
1.16073e-06
1.1594e-06
1.15934e-06
1.15939e-06
1.15934e-06
1.1594e-06
1.16087e-06
1.16113e-06
1.16177e-06
1.16172e-06
1.16073e-06
1.1594e-06
1.15934e-06
1.15937e-06
1.15936e-06
1.15937e-06
1.15934e-06
1.1594e-06
1.16086e-06
1.16115e-06
1.16184e-06
1.16088e-06
1.15936e-06
1.15934e-06
1.15937e-06
1.15934e-06
1.15934e-06
1.15934e-06
1.15937e-06
1.15934e-06
1.15936e-06
1.16129e-06
1.16196e-06
1.16085e-06
1.15933e-06
1.15939e-06
1.15936e-06
1.15934e-06
1.15933e-06
1.15934e-06
1.15936e-06
1.1594e-06
1.15934e-06
1.16131e-06
1.16187e-06
1.16089e-06
1.15936e-06
1.15934e-06
1.15937e-06
1.15934e-06
1.15934e-06
1.15934e-06
1.15937e-06
1.15934e-06
1.15936e-06
1.16131e-06
1.16189e-06
1.16171e-06
1.16089e-06
1.1594e-06
1.15934e-06
1.15937e-06
1.15936e-06
1.15937e-06
1.15934e-06
1.1594e-06
1.16104e-06
1.16121e-06
1.16193e-06
1.1616e-06
1.16115e-06
1.16087e-06
1.1594e-06
1.15934e-06
1.1594e-06
1.15934e-06
1.1594e-06
1.16101e-06
1.16117e-06
1.16119e-06
1.1618e-06
1.16113e-06
1.16086e-06
1.15936e-06
1.15934e-06
1.15936e-06
1.16104e-06
1.16118e-06
1.16125e-06
1.1619e-06
1.16177e-06
1.16115e-06
1.16129e-06
1.16131e-06
1.16131e-06
1.16121e-06
1.16119e-06
1.1619e-06
1.16184e-06
1.16196e-06
1.16187e-06
1.16189e-06
1.16193e-06
1.15184e-06
1.15099e-06
1.15092e-06
1.15097e-06
1.15183e-06
1.15187e-06
1.15187e-06
1.15112e-06
1.15068e-06
1.14933e-06
1.14933e-06
1.14933e-06
1.15083e-06
1.15114e-06
1.15185e-06
1.15112e-06
1.15066e-06
1.14938e-06
1.14938e-06
1.14942e-06
1.14938e-06
1.14938e-06
1.15083e-06
1.15114e-06
1.15185e-06
1.15184e-06
1.15068e-06
1.14938e-06
1.14939e-06
1.14945e-06
1.14945e-06
1.14945e-06
1.1494e-06
1.14938e-06
1.15084e-06
1.1512e-06
1.15189e-06
1.15099e-06
1.14933e-06
1.14938e-06
1.14945e-06
1.14946e-06
1.14948e-06
1.14946e-06
1.14945e-06
1.14938e-06
1.14933e-06
1.15125e-06
1.15202e-06
1.15092e-06
1.14933e-06
1.14942e-06
1.14945e-06
1.14948e-06
1.14948e-06
1.14948e-06
1.14945e-06
1.14942e-06
1.14933e-06
1.15124e-06
1.15203e-06
1.15097e-06
1.14933e-06
1.14938e-06
1.14945e-06
1.14946e-06
1.14948e-06
1.14946e-06
1.14945e-06
1.14938e-06
1.14933e-06
1.15124e-06
1.15203e-06
1.15183e-06
1.15083e-06
1.14938e-06
1.1494e-06
1.14945e-06
1.14945e-06
1.14945e-06
1.1494e-06
1.14938e-06
1.15103e-06
1.15124e-06
1.15203e-06
1.15187e-06
1.15114e-06
1.15083e-06
1.14938e-06
1.14938e-06
1.14942e-06
1.14938e-06
1.14938e-06
1.15101e-06
1.15117e-06
1.15127e-06
1.15185e-06
1.15114e-06
1.15084e-06
1.14933e-06
1.14933e-06
1.14933e-06
1.15103e-06
1.15117e-06
1.15126e-06
1.152e-06
1.15185e-06
1.1512e-06
1.15125e-06
1.15124e-06
1.15124e-06
1.15124e-06
1.15127e-06
1.152e-06
1.15189e-06
1.15202e-06
1.15203e-06
1.15203e-06
1.15202e-06
1.142e-06
1.14113e-06
1.14106e-06
1.14111e-06
1.14198e-06
1.14203e-06
1.14202e-06
1.14125e-06
1.14079e-06
1.13943e-06
1.13943e-06
1.13943e-06
1.14094e-06
1.14127e-06
1.142e-06
1.14125e-06
1.14077e-06
1.13946e-06
1.13947e-06
1.13949e-06
1.13947e-06
1.13946e-06
1.14093e-06
1.14126e-06
1.14201e-06
1.142e-06
1.14079e-06
1.13946e-06
1.13948e-06
1.13951e-06
1.13952e-06
1.13951e-06
1.13948e-06
1.13946e-06
1.14095e-06
1.14134e-06
1.14205e-06
1.14113e-06
1.13943e-06
1.13947e-06
1.13951e-06
1.13953e-06
1.13955e-06
1.13953e-06
1.13951e-06
1.13947e-06
1.13943e-06
1.14138e-06
1.14218e-06
1.14106e-06
1.13943e-06
1.13949e-06
1.13952e-06
1.13955e-06
1.13955e-06
1.13955e-06
1.13952e-06
1.13949e-06
1.13943e-06
1.14136e-06
1.14218e-06
1.14111e-06
1.13943e-06
1.13947e-06
1.13951e-06
1.13953e-06
1.13955e-06
1.13953e-06
1.13951e-06
1.13947e-06
1.13943e-06
1.14137e-06
1.14218e-06
1.14198e-06
1.14094e-06
1.13945e-06
1.13948e-06
1.13951e-06
1.13952e-06
1.13951e-06
1.13948e-06
1.13946e-06
1.14115e-06
1.14138e-06
1.14218e-06
1.14203e-06
1.14127e-06
1.14093e-06
1.13946e-06
1.13947e-06
1.13949e-06
1.13947e-06
1.13946e-06
1.14112e-06
1.1413e-06
1.14143e-06
1.142e-06
1.14126e-06
1.14095e-06
1.13943e-06
1.13943e-06
1.13943e-06
1.14115e-06
1.1413e-06
1.14141e-06
1.14216e-06
1.14201e-06
1.14134e-06
1.14138e-06
1.14136e-06
1.14137e-06
1.14138e-06
1.14143e-06
1.14216e-06
1.14205e-06
1.14218e-06
1.14218e-06
1.14218e-06
1.14218e-06
1.13215e-06
1.13128e-06
1.13121e-06
1.13126e-06
1.13213e-06
1.13218e-06
1.13218e-06
1.1314e-06
1.13093e-06
1.12956e-06
1.12956e-06
1.12956e-06
1.13108e-06
1.13141e-06
1.13215e-06
1.1314e-06
1.1309e-06
1.12957e-06
1.12958e-06
1.12959e-06
1.12958e-06
1.12957e-06
1.13106e-06
1.13141e-06
1.13216e-06
1.13215e-06
1.13093e-06
1.12957e-06
1.12959e-06
1.12961e-06
1.12961e-06
1.12961e-06
1.12959e-06
1.12957e-06
1.13108e-06
1.13149e-06
1.1322e-06
1.13128e-06
1.12956e-06
1.12958e-06
1.12961e-06
1.12962e-06
1.12963e-06
1.12962e-06
1.12961e-06
1.12958e-06
1.12956e-06
1.13152e-06
1.13233e-06
1.13121e-06
1.12956e-06
1.12959e-06
1.12961e-06
1.12963e-06
1.12964e-06
1.12963e-06
1.12961e-06
1.12959e-06
1.12956e-06
1.13151e-06
1.13233e-06
1.13126e-06
1.12956e-06
1.12958e-06
1.12961e-06
1.12962e-06
1.12963e-06
1.12962e-06
1.12961e-06
1.12958e-06
1.12956e-06
1.13151e-06
1.13234e-06
1.13213e-06
1.13108e-06
1.12957e-06
1.12959e-06
1.12961e-06
1.12961e-06
1.12961e-06
1.12959e-06
1.12957e-06
1.13128e-06
1.13152e-06
1.13233e-06
1.13218e-06
1.13141e-06
1.13106e-06
1.12957e-06
1.12958e-06
1.12959e-06
1.12958e-06
1.12957e-06
1.13125e-06
1.13144e-06
1.13158e-06
1.13215e-06
1.13141e-06
1.13108e-06
1.12956e-06
1.12956e-06
1.12956e-06
1.13128e-06
1.13144e-06
1.13156e-06
1.13231e-06
1.13216e-06
1.13149e-06
1.13152e-06
1.13151e-06
1.13151e-06
1.13152e-06
1.13158e-06
1.13231e-06
1.1322e-06
1.13233e-06
1.13233e-06
1.13234e-06
1.13233e-06
1.1223e-06
1.12142e-06
1.12136e-06
1.1214e-06
1.12228e-06
1.12233e-06
1.12233e-06
1.12155e-06
1.12107e-06
1.1197e-06
1.1197e-06
1.1197e-06
1.12122e-06
1.12155e-06
1.1223e-06
1.12155e-06
1.12104e-06
1.1197e-06
1.11971e-06
1.11972e-06
1.11971e-06
1.1197e-06
1.1212e-06
1.12155e-06
1.12231e-06
1.1223e-06
1.12107e-06
1.1197e-06
1.11971e-06
1.11973e-06
1.11973e-06
1.11973e-06
1.11971e-06
1.1197e-06
1.12122e-06
1.12163e-06
1.12235e-06
1.12142e-06
1.1197e-06
1.11971e-06
1.11973e-06
1.11974e-06
1.11974e-06
1.11974e-06
1.11973e-06
1.11971e-06
1.1197e-06
1.12167e-06
1.12248e-06
1.12136e-06
1.1197e-06
1.11972e-06
1.11973e-06
1.11974e-06
1.11974e-06
1.11974e-06
1.11973e-06
1.11972e-06
1.1197e-06
1.12165e-06
1.12248e-06
1.1214e-06
1.1197e-06
1.11971e-06
1.11973e-06
1.11974e-06
1.11974e-06
1.11974e-06
1.11973e-06
1.11971e-06
1.1197e-06
1.12166e-06
1.12248e-06
1.12228e-06
1.12122e-06
1.1197e-06
1.11971e-06
1.11973e-06
1.11973e-06
1.11973e-06
1.11971e-06
1.1197e-06
1.12143e-06
1.12167e-06
1.12248e-06
1.12233e-06
1.12155e-06
1.1212e-06
1.1197e-06
1.11971e-06
1.11972e-06
1.11971e-06
1.1197e-06
1.1214e-06
1.12159e-06
1.12173e-06
1.1223e-06
1.12155e-06
1.12122e-06
1.1197e-06
1.1197e-06
1.1197e-06
1.12143e-06
1.12159e-06
1.12171e-06
1.12246e-06
1.12231e-06
1.12163e-06
1.12167e-06
1.12165e-06
1.12166e-06
1.12167e-06
1.12173e-06
1.12246e-06
1.12235e-06
1.12248e-06
1.12248e-06
1.12248e-06
1.12248e-06
1.11244e-06
1.11157e-06
1.1115e-06
1.11155e-06
1.11243e-06
1.11248e-06
1.11248e-06
1.1117e-06
1.11122e-06
1.10984e-06
1.10984e-06
1.10984e-06
1.11137e-06
1.1117e-06
1.11245e-06
1.1117e-06
1.11119e-06
1.10985e-06
1.10985e-06
1.10985e-06
1.10985e-06
1.10985e-06
1.11135e-06
1.1117e-06
1.11246e-06
1.11244e-06
1.11122e-06
1.10985e-06
1.10985e-06
1.10986e-06
1.10986e-06
1.10986e-06
1.10985e-06
1.10985e-06
1.11137e-06
1.11178e-06
1.1125e-06
1.11157e-06
1.10984e-06
1.10985e-06
1.10986e-06
1.10986e-06
1.10987e-06
1.10986e-06
1.10986e-06
1.10985e-06
1.10984e-06
1.11181e-06
1.11263e-06
1.1115e-06
1.10984e-06
1.10985e-06
1.10986e-06
1.10987e-06
1.10987e-06
1.10987e-06
1.10986e-06
1.10985e-06
1.10984e-06
1.1118e-06
1.11263e-06
1.11155e-06
1.10984e-06
1.10985e-06
1.10986e-06
1.10986e-06
1.10987e-06
1.10986e-06
1.10986e-06
1.10985e-06
1.10984e-06
1.11181e-06
1.11263e-06
1.11243e-06
1.11137e-06
1.10985e-06
1.10985e-06
1.10986e-06
1.10986e-06
1.10986e-06
1.10985e-06
1.10985e-06
1.11157e-06
1.11182e-06
1.11263e-06
1.11248e-06
1.1117e-06
1.11135e-06
1.10985e-06
1.10985e-06
1.10985e-06
1.10985e-06
1.10985e-06
1.11154e-06
1.11174e-06
1.11188e-06
1.11245e-06
1.1117e-06
1.11137e-06
1.10984e-06
1.10984e-06
1.10984e-06
1.11157e-06
1.11174e-06
1.11185e-06
1.11261e-06
1.11246e-06
1.11178e-06
1.11181e-06
1.1118e-06
1.11181e-06
1.11182e-06
1.11188e-06
1.11261e-06
1.1125e-06
1.11263e-06
1.11263e-06
1.11263e-06
1.11263e-06
1.10259e-06
1.10172e-06
1.10165e-06
1.1017e-06
1.10258e-06
1.10263e-06
1.10262e-06
1.10184e-06
1.10137e-06
1.09999e-06
1.09999e-06
1.09999e-06
1.10151e-06
1.10185e-06
1.1026e-06
1.10184e-06
1.10133e-06
1.09999e-06
1.09999e-06
1.09999e-06
1.09999e-06
1.09999e-06
1.10149e-06
1.10185e-06
1.10261e-06
1.10259e-06
1.10137e-06
1.09999e-06
1.09999e-06
1.1e-06
1.1e-06
1.1e-06
1.09999e-06
1.09999e-06
1.10152e-06
1.10193e-06
1.10265e-06
1.10172e-06
1.09999e-06
1.09999e-06
1.1e-06
1.1e-06
1.1e-06
1.1e-06
1.1e-06
1.09999e-06
1.09999e-06
1.10196e-06
1.10277e-06
1.10165e-06
1.09999e-06
1.09999e-06
1.1e-06
1.1e-06
1.1e-06
1.1e-06
1.1e-06
1.09999e-06
1.09999e-06
1.10195e-06
1.10278e-06
1.1017e-06
1.09999e-06
1.09999e-06
1.1e-06
1.1e-06
1.1e-06
1.1e-06
1.1e-06
1.09999e-06
1.09999e-06
1.10195e-06
1.10278e-06
1.10258e-06
1.10151e-06
1.09999e-06
1.09999e-06
1.1e-06
1.1e-06
1.1e-06
1.09999e-06
1.09999e-06
1.10172e-06
1.10197e-06
1.10277e-06
1.10263e-06
1.10185e-06
1.10149e-06
1.09999e-06
1.09999e-06
1.09999e-06
1.09999e-06
1.09999e-06
1.10169e-06
1.10188e-06
1.10203e-06
1.1026e-06
1.10185e-06
1.10152e-06
1.09999e-06
1.09999e-06
1.09999e-06
1.10172e-06
1.10188e-06
1.102e-06
1.10276e-06
1.10261e-06
1.10193e-06
1.10196e-06
1.10195e-06
1.10195e-06
1.10197e-06
1.10203e-06
1.10276e-06
1.10265e-06
1.10277e-06
1.10278e-06
1.10278e-06
1.10277e-06
1.09274e-06
1.09187e-06
1.0918e-06
1.09185e-06
1.09272e-06
1.09277e-06
1.09277e-06
1.09199e-06
1.09151e-06
1.09013e-06
1.09013e-06
1.09013e-06
1.09166e-06
1.092e-06
1.09275e-06
1.09199e-06
1.09148e-06
1.09013e-06
1.09014e-06
1.09014e-06
1.09014e-06
1.09013e-06
1.09164e-06
1.09199e-06
1.09275e-06
1.09274e-06
1.09151e-06
1.09013e-06
1.09014e-06
1.09014e-06
1.09014e-06
1.09014e-06
1.09014e-06
1.09013e-06
1.09166e-06
1.09208e-06
1.09279e-06
1.09187e-06
1.09013e-06
1.09014e-06
1.09014e-06
1.09014e-06
1.09014e-06
1.09014e-06
1.09014e-06
1.09014e-06
1.09013e-06
1.09211e-06
1.09292e-06
1.0918e-06
1.09013e-06
1.09014e-06
1.09014e-06
1.09014e-06
1.09014e-06
1.09014e-06
1.09014e-06
1.09014e-06
1.09013e-06
1.09209e-06
1.09293e-06
1.09185e-06
1.09013e-06
1.09014e-06
1.09014e-06
1.09014e-06
1.09014e-06
1.09014e-06
1.09014e-06
1.09014e-06
1.09013e-06
1.0921e-06
1.09293e-06
1.09272e-06
1.09166e-06
1.09013e-06
1.09014e-06
1.09014e-06
1.09014e-06
1.09014e-06
1.09014e-06
1.09013e-06
1.09187e-06
1.09212e-06
1.09292e-06
1.09277e-06
1.092e-06
1.09164e-06
1.09013e-06
1.09014e-06
1.09014e-06
1.09014e-06
1.09013e-06
1.09183e-06
1.09203e-06
1.09217e-06
1.09275e-06
1.09199e-06
1.09166e-06
1.09013e-06
1.09013e-06
1.09013e-06
1.09187e-06
1.09203e-06
1.09215e-06
1.09291e-06
1.09275e-06
1.09208e-06
1.09211e-06
1.09209e-06
1.0921e-06
1.09212e-06
1.09217e-06
1.09291e-06
1.09279e-06
1.09292e-06
1.09293e-06
1.09293e-06
1.09292e-06
1.08289e-06
1.08201e-06
1.08194e-06
1.08199e-06
1.08287e-06
1.08292e-06
1.08292e-06
1.08214e-06
1.08166e-06
1.08028e-06
1.08028e-06
1.08028e-06
1.08181e-06
1.08214e-06
1.0829e-06
1.08214e-06
1.08163e-06
1.08028e-06
1.08028e-06
1.08028e-06
1.08028e-06
1.08028e-06
1.08178e-06
1.08214e-06
1.0829e-06
1.08289e-06
1.08166e-06
1.08028e-06
1.08028e-06
1.08028e-06
1.08028e-06
1.08028e-06
1.08028e-06
1.08028e-06
1.08181e-06
1.08222e-06
1.08294e-06
1.08201e-06
1.08028e-06
1.08028e-06
1.08028e-06
1.08028e-06
1.08028e-06
1.08028e-06
1.08028e-06
1.08028e-06
1.08028e-06
1.08226e-06
1.08307e-06
1.08194e-06
1.08028e-06
1.08028e-06
1.08028e-06
1.08028e-06
1.08028e-06
1.08028e-06
1.08028e-06
1.08028e-06
1.08028e-06
1.08224e-06
1.08307e-06
1.08199e-06
1.08028e-06
1.08028e-06
1.08028e-06
1.08028e-06
1.08028e-06
1.08028e-06
1.08028e-06
1.08028e-06
1.08028e-06
1.08225e-06
1.08307e-06
1.08287e-06
1.08181e-06
1.08028e-06
1.08028e-06
1.08028e-06
1.08028e-06
1.08028e-06
1.08028e-06
1.08028e-06
1.08201e-06
1.08226e-06
1.08307e-06
1.08292e-06
1.08214e-06
1.08178e-06
1.08028e-06
1.08028e-06
1.08028e-06
1.08028e-06
1.08028e-06
1.08198e-06
1.08218e-06
1.08232e-06
1.0829e-06
1.08214e-06
1.08181e-06
1.08028e-06
1.08028e-06
1.08028e-06
1.08201e-06
1.08218e-06
1.0823e-06
1.08305e-06
1.0829e-06
1.08222e-06
1.08226e-06
1.08224e-06
1.08225e-06
1.08226e-06
1.08232e-06
1.08305e-06
1.08294e-06
1.08307e-06
1.08307e-06
1.08307e-06
1.08307e-06
1.07303e-06
1.07216e-06
1.07209e-06
1.07214e-06
1.07302e-06
1.07307e-06
1.07306e-06
1.07228e-06
1.07181e-06
1.07043e-06
1.07043e-06
1.07043e-06
1.07196e-06
1.07229e-06
1.07304e-06
1.07228e-06
1.07177e-06
1.07043e-06
1.07043e-06
1.07043e-06
1.07043e-06
1.07043e-06
1.07193e-06
1.07229e-06
1.07305e-06
1.07303e-06
1.07181e-06
1.07043e-06
1.07043e-06
1.07043e-06
1.07043e-06
1.07043e-06
1.07043e-06
1.07043e-06
1.07196e-06
1.07237e-06
1.07309e-06
1.07216e-06
1.07043e-06
1.07043e-06
1.07043e-06
1.07043e-06
1.07043e-06
1.07043e-06
1.07043e-06
1.07043e-06
1.07043e-06
1.0724e-06
1.07322e-06
1.07209e-06
1.07043e-06
1.07043e-06
1.07043e-06
1.07043e-06
1.07043e-06
1.07043e-06
1.07043e-06
1.07043e-06
1.07043e-06
1.07239e-06
1.07322e-06
1.07214e-06
1.07043e-06
1.07043e-06
1.07043e-06
1.07043e-06
1.07043e-06
1.07043e-06
1.07043e-06
1.07043e-06
1.07043e-06
1.07239e-06
1.07322e-06
1.07302e-06
1.07196e-06
1.07043e-06
1.07043e-06
1.07043e-06
1.07043e-06
1.07043e-06
1.07043e-06
1.07043e-06
1.07216e-06
1.07241e-06
1.07322e-06
1.07307e-06
1.07229e-06
1.07193e-06
1.07043e-06
1.07043e-06
1.07043e-06
1.07043e-06
1.07043e-06
1.07213e-06
1.07233e-06
1.07247e-06
1.07304e-06
1.07229e-06
1.07196e-06
1.07043e-06
1.07043e-06
1.07043e-06
1.07216e-06
1.07233e-06
1.07244e-06
1.0732e-06
1.07305e-06
1.07237e-06
1.0724e-06
1.07239e-06
1.07239e-06
1.07241e-06
1.07247e-06
1.0732e-06
1.07309e-06
1.07322e-06
1.07322e-06
1.07322e-06
1.07322e-06
1.06318e-06
1.06231e-06
1.06224e-06
1.06229e-06
1.06316e-06
1.06321e-06
1.06321e-06
1.06243e-06
1.06195e-06
1.06057e-06
1.06057e-06
1.06057e-06
1.0621e-06
1.06244e-06
1.06319e-06
1.06243e-06
1.06192e-06
1.06057e-06
1.06057e-06
1.06057e-06
1.06057e-06
1.06057e-06
1.06208e-06
1.06243e-06
1.06319e-06
1.06318e-06
1.06195e-06
1.06057e-06
1.06057e-06
1.06057e-06
1.06057e-06
1.06057e-06
1.06057e-06
1.06057e-06
1.0621e-06
1.06252e-06
1.06323e-06
1.06231e-06
1.06057e-06
1.06057e-06
1.06057e-06
1.06058e-06
1.06057e-06
1.06058e-06
1.06057e-06
1.06057e-06
1.06057e-06
1.06255e-06
1.06336e-06
1.06224e-06
1.06057e-06
1.06057e-06
1.06057e-06
1.06057e-06
1.06058e-06
1.06057e-06
1.06057e-06
1.06057e-06
1.06057e-06
1.06253e-06
1.06337e-06
1.06229e-06
1.06057e-06
1.06057e-06
1.06057e-06
1.06058e-06
1.06057e-06
1.06058e-06
1.06057e-06
1.06057e-06
1.06057e-06
1.06254e-06
1.06337e-06
1.06316e-06
1.0621e-06
1.06057e-06
1.06057e-06
1.06057e-06
1.06057e-06
1.06057e-06
1.06057e-06
1.06057e-06
1.06231e-06
1.06256e-06
1.06336e-06
1.06321e-06
1.06244e-06
1.06208e-06
1.06057e-06
1.06057e-06
1.06057e-06
1.06057e-06
1.06057e-06
1.06227e-06
1.06247e-06
1.06262e-06
1.06319e-06
1.06243e-06
1.0621e-06
1.06057e-06
1.06057e-06
1.06057e-06
1.06231e-06
1.06247e-06
1.06259e-06
1.06335e-06
1.06319e-06
1.06252e-06
1.06255e-06
1.06253e-06
1.06254e-06
1.06256e-06
1.06262e-06
1.06335e-06
1.06323e-06
1.06336e-06
1.06337e-06
1.06337e-06
1.06336e-06
1.05333e-06
1.05245e-06
1.05238e-06
1.05243e-06
1.05331e-06
1.05336e-06
1.05336e-06
1.05258e-06
1.0521e-06
1.05072e-06
1.05072e-06
1.05072e-06
1.05225e-06
1.05258e-06
1.05334e-06
1.05258e-06
1.05207e-06
1.05072e-06
1.05072e-06
1.05072e-06
1.05072e-06
1.05072e-06
1.05223e-06
1.05258e-06
1.05334e-06
1.05333e-06
1.0521e-06
1.05072e-06
1.05072e-06
1.05072e-06
1.05072e-06
1.05072e-06
1.05072e-06
1.05072e-06
1.05225e-06
1.05267e-06
1.05338e-06
1.05245e-06
1.05072e-06
1.05072e-06
1.05072e-06
1.05072e-06
1.05072e-06
1.05072e-06
1.05072e-06
1.05072e-06
1.05072e-06
1.0527e-06
1.05351e-06
1.05238e-06
1.05072e-06
1.05072e-06
1.05072e-06
1.05072e-06
1.05072e-06
1.05072e-06
1.05072e-06
1.05072e-06
1.05072e-06
1.05268e-06
1.05351e-06
1.05243e-06
1.05072e-06
1.05072e-06
1.05072e-06
1.05072e-06
1.05072e-06
1.05072e-06
1.05072e-06
1.05072e-06
1.05072e-06
1.05269e-06
1.05352e-06
1.05331e-06
1.05225e-06
1.05072e-06
1.05072e-06
1.05072e-06
1.05072e-06
1.05072e-06
1.05072e-06
1.05072e-06
1.05245e-06
1.0527e-06
1.05351e-06
1.05336e-06
1.05258e-06
1.05223e-06
1.05072e-06
1.05072e-06
1.05072e-06
1.05072e-06
1.05072e-06
1.05242e-06
1.05262e-06
1.05276e-06
1.05334e-06
1.05258e-06
1.05225e-06
1.05072e-06
1.05072e-06
1.05072e-06
1.05245e-06
1.05262e-06
1.05274e-06
1.05349e-06
1.05334e-06
1.05267e-06
1.0527e-06
1.05268e-06
1.05269e-06
1.0527e-06
1.05276e-06
1.05349e-06
1.05338e-06
1.05351e-06
1.05351e-06
1.05352e-06
1.05351e-06
1.04347e-06
1.0426e-06
1.04253e-06
1.04258e-06
1.04346e-06
1.04351e-06
1.04351e-06
1.04272e-06
1.04225e-06
1.04087e-06
1.04087e-06
1.04087e-06
1.0424e-06
1.04273e-06
1.04348e-06
1.04272e-06
1.04221e-06
1.04087e-06
1.04087e-06
1.04087e-06
1.04087e-06
1.04087e-06
1.04237e-06
1.04273e-06
1.04349e-06
1.04347e-06
1.04225e-06
1.04087e-06
1.04087e-06
1.04087e-06
1.04087e-06
1.04087e-06
1.04087e-06
1.04087e-06
1.0424e-06
1.04281e-06
1.04353e-06
1.0426e-06
1.04087e-06
1.04087e-06
1.04087e-06
1.04087e-06
1.04087e-06
1.04087e-06
1.04087e-06
1.04087e-06
1.04087e-06
1.04284e-06
1.04366e-06
1.04253e-06
1.04087e-06
1.04087e-06
1.04087e-06
1.04087e-06
1.04087e-06
1.04087e-06
1.04087e-06
1.04087e-06
1.04087e-06
1.04283e-06
1.04366e-06
1.04258e-06
1.04087e-06
1.04087e-06
1.04087e-06
1.04087e-06
1.04087e-06
1.04087e-06
1.04087e-06
1.04087e-06
1.04087e-06
1.04283e-06
1.04366e-06
1.04346e-06
1.0424e-06
1.04087e-06
1.04087e-06
1.04087e-06
1.04087e-06
1.04087e-06
1.04087e-06
1.04087e-06
1.0426e-06
1.04285e-06
1.04366e-06
1.04351e-06
1.04273e-06
1.04237e-06
1.04087e-06
1.04087e-06
1.04087e-06
1.04087e-06
1.04087e-06
1.04257e-06
1.04277e-06
1.04291e-06
1.04348e-06
1.04273e-06
1.0424e-06
1.04087e-06
1.04087e-06
1.04087e-06
1.0426e-06
1.04277e-06
1.04288e-06
1.04364e-06
1.04349e-06
1.04281e-06
1.04284e-06
1.04283e-06
1.04283e-06
1.04285e-06
1.04291e-06
1.04364e-06
1.04353e-06
1.04366e-06
1.04366e-06
1.04366e-06
1.04366e-06
1.03362e-06
1.03275e-06
1.03268e-06
1.03273e-06
1.0336e-06
1.03365e-06
1.03365e-06
1.03287e-06
1.0324e-06
1.03101e-06
1.03101e-06
1.03101e-06
1.03254e-06
1.03288e-06
1.03363e-06
1.03287e-06
1.03236e-06
1.03101e-06
1.03102e-06
1.03101e-06
1.03102e-06
1.03101e-06
1.03252e-06
1.03287e-06
1.03363e-06
1.03362e-06
1.0324e-06
1.03101e-06
1.03101e-06
1.03101e-06
1.03101e-06
1.03101e-06
1.03101e-06
1.03101e-06
1.03254e-06
1.03296e-06
1.03368e-06
1.03275e-06
1.03101e-06
1.03102e-06
1.03101e-06
1.03102e-06
1.03101e-06
1.03102e-06
1.03101e-06
1.03102e-06
1.03101e-06
1.03299e-06
1.0338e-06
1.03268e-06
1.03101e-06
1.03101e-06
1.03101e-06
1.03101e-06
1.03101e-06
1.03101e-06
1.03101e-06
1.03101e-06
1.03101e-06
1.03297e-06
1.03381e-06
1.03273e-06
1.03101e-06
1.03102e-06
1.03101e-06
1.03102e-06
1.03101e-06
1.03102e-06
1.03101e-06
1.03102e-06
1.03101e-06
1.03298e-06
1.03381e-06
1.0336e-06
1.03254e-06
1.03101e-06
1.03101e-06
1.03101e-06
1.03101e-06
1.03101e-06
1.03101e-06
1.03101e-06
1.03275e-06
1.033e-06
1.0338e-06
1.03365e-06
1.03288e-06
1.03252e-06
1.03101e-06
1.03102e-06
1.03101e-06
1.03102e-06
1.03101e-06
1.03271e-06
1.03291e-06
1.03306e-06
1.03363e-06
1.03287e-06
1.03254e-06
1.03101e-06
1.03101e-06
1.03101e-06
1.03275e-06
1.03291e-06
1.03303e-06
1.03379e-06
1.03363e-06
1.03296e-06
1.03299e-06
1.03297e-06
1.03298e-06
1.033e-06
1.03306e-06
1.03379e-06
1.03368e-06
1.0338e-06
1.03381e-06
1.03381e-06
1.0338e-06
1.02377e-06
1.02289e-06
1.02283e-06
1.02287e-06
1.02375e-06
1.0238e-06
1.0238e-06
1.02302e-06
1.02254e-06
1.02116e-06
1.02116e-06
1.02116e-06
1.02269e-06
1.02302e-06
1.02378e-06
1.02302e-06
1.02251e-06
1.02116e-06
1.02116e-06
1.02116e-06
1.02116e-06
1.02116e-06
1.02267e-06
1.02302e-06
1.02378e-06
1.02377e-06
1.02254e-06
1.02116e-06
1.02116e-06
1.02116e-06
1.02116e-06
1.02116e-06
1.02116e-06
1.02116e-06
1.02269e-06
1.02311e-06
1.02382e-06
1.02289e-06
1.02116e-06
1.02116e-06
1.02116e-06
1.02116e-06
1.02116e-06
1.02116e-06
1.02116e-06
1.02116e-06
1.02116e-06
1.02314e-06
1.02395e-06
1.02283e-06
1.02116e-06
1.02116e-06
1.02116e-06
1.02116e-06
1.02116e-06
1.02116e-06
1.02116e-06
1.02116e-06
1.02116e-06
1.02312e-06
1.02396e-06
1.02287e-06
1.02116e-06
1.02116e-06
1.02116e-06
1.02116e-06
1.02116e-06
1.02116e-06
1.02116e-06
1.02116e-06
1.02116e-06
1.02313e-06
1.02396e-06
1.02375e-06
1.02269e-06
1.02116e-06
1.02116e-06
1.02116e-06
1.02116e-06
1.02116e-06
1.02116e-06
1.02116e-06
1.0229e-06
1.02314e-06
1.02395e-06
1.0238e-06
1.02302e-06
1.02267e-06
1.02116e-06
1.02116e-06
1.02116e-06
1.02116e-06
1.02116e-06
1.02286e-06
1.02306e-06
1.0232e-06
1.02378e-06
1.02302e-06
1.02269e-06
1.02116e-06
1.02116e-06
1.02116e-06
1.0229e-06
1.02306e-06
1.02318e-06
1.02394e-06
1.02378e-06
1.02311e-06
1.02314e-06
1.02312e-06
1.02313e-06
1.02314e-06
1.0232e-06
1.02394e-06
1.02382e-06
1.02395e-06
1.02396e-06
1.02396e-06
1.02395e-06
1.01392e-06
1.01304e-06
1.01297e-06
1.01302e-06
1.0139e-06
1.01395e-06
1.01395e-06
1.01316e-06
1.01269e-06
1.01131e-06
1.01131e-06
1.01131e-06
1.01284e-06
1.01317e-06
1.01392e-06
1.01317e-06
1.01265e-06
1.01131e-06
1.01131e-06
1.01131e-06
1.01131e-06
1.01131e-06
1.01281e-06
1.01317e-06
1.01393e-06
1.01392e-06
1.01269e-06
1.01131e-06
1.01131e-06
1.01131e-06
1.01131e-06
1.01131e-06
1.01131e-06
1.01131e-06
1.01284e-06
1.01325e-06
1.01397e-06
1.01304e-06
1.01131e-06
1.01131e-06
1.01131e-06
1.01131e-06
1.01131e-06
1.01131e-06
1.01131e-06
1.01131e-06
1.01131e-06
1.01328e-06
1.0141e-06
1.01297e-06
1.01131e-06
1.01131e-06
1.01131e-06
1.01131e-06
1.01131e-06
1.01131e-06
1.01131e-06
1.01131e-06
1.01131e-06
1.01327e-06
1.0141e-06
1.01302e-06
1.01131e-06
1.01131e-06
1.01131e-06
1.01131e-06
1.01131e-06
1.01131e-06
1.01131e-06
1.01131e-06
1.01131e-06
1.01327e-06
1.0141e-06
1.0139e-06
1.01284e-06
1.01131e-06
1.01131e-06
1.01131e-06
1.01131e-06
1.01131e-06
1.01131e-06
1.01131e-06
1.01304e-06
1.01329e-06
1.0141e-06
1.01395e-06
1.01317e-06
1.01281e-06
1.01131e-06
1.01131e-06
1.01131e-06
1.01131e-06
1.01131e-06
1.01301e-06
1.01321e-06
1.01335e-06
1.01392e-06
1.01317e-06
1.01284e-06
1.01131e-06
1.01131e-06
1.01131e-06
1.01304e-06
1.01321e-06
1.01333e-06
1.01408e-06
1.01393e-06
1.01325e-06
1.01328e-06
1.01327e-06
1.01327e-06
1.01329e-06
1.01335e-06
1.01408e-06
1.01397e-06
1.0141e-06
1.0141e-06
1.0141e-06
1.0141e-06
1.00406e-06
1.00319e-06
1.00312e-06
1.00317e-06
1.00404e-06
1.0041e-06
1.00409e-06
1.00331e-06
1.00284e-06
1.00145e-06
1.00146e-06
1.00145e-06
1.00298e-06
1.00332e-06
1.00407e-06
1.00331e-06
1.0028e-06
1.00146e-06
1.00146e-06
1.00146e-06
1.00146e-06
1.00146e-06
1.00296e-06
1.00332e-06
1.00408e-06
1.00406e-06
1.00284e-06
1.00146e-06
1.00146e-06
1.00146e-06
1.00146e-06
1.00146e-06
1.00146e-06
1.00146e-06
1.00298e-06
1.0034e-06
1.00412e-06
1.00319e-06
1.00145e-06
1.00146e-06
1.00146e-06
1.00146e-06
1.00146e-06
1.00146e-06
1.00146e-06
1.00146e-06
1.00145e-06
1.00343e-06
1.00424e-06
1.00312e-06
1.00146e-06
1.00146e-06
1.00146e-06
1.00146e-06
1.00146e-06
1.00146e-06
1.00146e-06
1.00146e-06
1.00146e-06
1.00342e-06
1.00425e-06
1.00317e-06
1.00145e-06
1.00146e-06
1.00146e-06
1.00146e-06
1.00146e-06
1.00146e-06
1.00146e-06
1.00146e-06
1.00145e-06
1.00342e-06
1.00425e-06
1.00404e-06
1.00298e-06
1.00146e-06
1.00146e-06
1.00146e-06
1.00146e-06
1.00146e-06
1.00146e-06
1.00146e-06
1.00319e-06
1.00344e-06
1.00424e-06
1.0041e-06
1.00332e-06
1.00296e-06
1.00146e-06
1.00146e-06
1.00146e-06
1.00146e-06
1.00146e-06
1.00316e-06
1.00335e-06
1.0035e-06
1.00407e-06
1.00332e-06
1.00298e-06
1.00145e-06
1.00146e-06
1.00145e-06
1.00319e-06
1.00335e-06
1.00347e-06
1.00423e-06
1.00408e-06
1.0034e-06
1.00343e-06
1.00342e-06
1.00342e-06
1.00344e-06
1.0035e-06
1.00423e-06
1.00412e-06
1.00424e-06
1.00425e-06
1.00425e-06
1.00424e-06
9.94209e-07
9.93335e-07
9.93266e-07
9.93315e-07
9.94192e-07
9.94243e-07
9.94241e-07
9.93459e-07
9.92983e-07
9.91602e-07
9.91602e-07
9.91602e-07
9.93131e-07
9.93466e-07
9.94218e-07
9.93459e-07
9.92949e-07
9.91602e-07
9.91603e-07
9.91603e-07
9.91603e-07
9.91602e-07
9.93107e-07
9.93463e-07
9.94222e-07
9.94209e-07
9.92983e-07
9.91602e-07
9.91603e-07
9.91602e-07
9.91603e-07
9.91602e-07
9.91603e-07
9.91602e-07
9.93132e-07
9.93547e-07
9.94263e-07
9.93335e-07
9.91602e-07
9.91603e-07
9.91602e-07
9.91603e-07
9.91602e-07
9.91603e-07
9.91602e-07
9.91603e-07
9.91602e-07
9.93579e-07
9.94391e-07
9.93266e-07
9.91602e-07
9.91603e-07
9.91603e-07
9.91602e-07
9.91603e-07
9.91602e-07
9.91603e-07
9.91603e-07
9.91602e-07
9.93562e-07
9.94396e-07
9.93315e-07
9.91602e-07
9.91603e-07
9.91602e-07
9.91603e-07
9.91602e-07
9.91603e-07
9.91602e-07
9.91603e-07
9.91602e-07
9.93569e-07
9.94397e-07
9.94192e-07
9.93131e-07
9.91602e-07
9.91603e-07
9.91602e-07
9.91603e-07
9.91602e-07
9.91603e-07
9.91602e-07
9.93336e-07
9.93585e-07
9.94392e-07
9.94243e-07
9.93465e-07
9.93107e-07
9.91602e-07
9.91603e-07
9.91603e-07
9.91603e-07
9.91602e-07
9.93302e-07
9.93501e-07
9.93644e-07
9.94218e-07
9.93463e-07
9.93132e-07
9.91602e-07
9.91602e-07
9.91602e-07
9.93337e-07
9.93501e-07
9.93619e-07
9.94377e-07
9.94222e-07
9.93547e-07
9.93579e-07
9.93562e-07
9.93569e-07
9.93585e-07
9.93644e-07
9.94377e-07
9.94263e-07
9.94391e-07
9.94396e-07
9.94397e-07
9.94392e-07
9.84357e-07
9.83482e-07
9.83414e-07
9.83463e-07
9.84339e-07
9.8439e-07
9.84388e-07
9.83606e-07
9.83131e-07
9.81749e-07
9.8175e-07
9.81749e-07
9.83278e-07
9.83613e-07
9.84366e-07
9.83606e-07
9.83096e-07
9.81749e-07
9.8175e-07
9.8175e-07
9.8175e-07
9.81749e-07
9.83255e-07
9.8361e-07
9.84369e-07
9.84357e-07
9.83131e-07
9.81749e-07
9.8175e-07
9.81749e-07
9.8175e-07
9.81749e-07
9.8175e-07
9.81749e-07
9.83279e-07
9.83694e-07
9.8441e-07
9.83482e-07
9.81749e-07
9.8175e-07
9.81749e-07
9.8175e-07
9.8175e-07
9.8175e-07
9.81749e-07
9.8175e-07
9.81749e-07
9.83726e-07
9.84539e-07
9.83413e-07
9.8175e-07
9.8175e-07
9.8175e-07
9.8175e-07
9.8175e-07
9.8175e-07
9.8175e-07
9.8175e-07
9.8175e-07
9.83709e-07
9.84543e-07
9.83462e-07
9.81749e-07
9.8175e-07
9.81749e-07
9.8175e-07
9.8175e-07
9.8175e-07
9.81749e-07
9.8175e-07
9.81749e-07
9.83716e-07
9.84545e-07
9.84339e-07
9.83278e-07
9.81749e-07
9.8175e-07
9.81749e-07
9.8175e-07
9.81749e-07
9.8175e-07
9.81749e-07
9.83484e-07
9.83732e-07
9.84539e-07
9.8439e-07
9.83613e-07
9.83255e-07
9.81749e-07
9.8175e-07
9.8175e-07
9.8175e-07
9.81749e-07
9.83449e-07
9.83648e-07
9.83791e-07
9.84366e-07
9.8361e-07
9.83279e-07
9.81749e-07
9.8175e-07
9.81749e-07
9.83484e-07
9.83648e-07
9.83767e-07
9.84524e-07
9.84369e-07
9.83694e-07
9.83726e-07
9.83709e-07
9.83716e-07
9.83732e-07
9.83791e-07
9.84524e-07
9.8441e-07
9.84539e-07
9.84543e-07
9.84545e-07
9.84539e-07
9.74504e-07
9.73629e-07
9.73561e-07
9.7361e-07
9.74486e-07
9.74537e-07
9.74535e-07
9.73753e-07
9.73278e-07
9.71896e-07
9.71897e-07
9.71896e-07
9.73425e-07
9.7376e-07
9.74513e-07
9.73753e-07
9.73243e-07
9.71896e-07
9.71897e-07
9.71897e-07
9.71897e-07
9.71896e-07
9.73402e-07
9.73757e-07
9.74516e-07
9.74504e-07
9.73278e-07
9.71896e-07
9.71897e-07
9.71896e-07
9.71897e-07
9.71896e-07
9.71897e-07
9.71896e-07
9.73426e-07
9.73841e-07
9.74557e-07
9.73629e-07
9.71896e-07
9.71897e-07
9.71896e-07
9.71897e-07
9.71897e-07
9.71897e-07
9.71896e-07
9.71897e-07
9.71896e-07
9.73873e-07
9.74686e-07
9.7356e-07
9.71897e-07
9.71897e-07
9.71897e-07
9.71897e-07
9.71897e-07
9.71897e-07
9.71897e-07
9.71897e-07
9.71897e-07
9.73856e-07
9.7469e-07
9.73609e-07
9.71896e-07
9.71897e-07
9.71896e-07
9.71897e-07
9.71897e-07
9.71897e-07
9.71896e-07
9.71897e-07
9.71896e-07
9.73863e-07