/*--------------------------------*- C++ -*----------------------------------*\
| =========                 |                                                 |
| \\      /  F ield         | OpenFOAM: The Open Source CFD Toolbox           |
|  \\    /   O peration     | Version:  v2012                                 |
|   \\  /    A nd           | Website:  www.openfoam.com                      |
|    \\/     M anipulation  |                                                 |
\*---------------------------------------------------------------------------*/
FoamFile
{
    version     2.0;
    format      ascii;
    class       volScalarField;
    location    "55";
    object      p;
}
// * * * * * * * * * * * * * * * * * * * * * * * * * * * * * * * * * * * * * //

dimensions      [0 2 -2 0 0 0 0];


internalField   nonuniform List<scalar> 
292667
(
1.15646e-06
1.14719e-06
1.14646e-06
1.14652e-06
1.14752e-06
1.15735e-06
1.1474e-06
1.14486e-06
1.14337e-06
1.14276e-06
1.14284e-06
1.14364e-06
1.14535e-06
1.14812e-06
1.1474e-06
1.14412e-06
1.14207e-06
1.14093e-06
1.14046e-06
1.14052e-06
1.14114e-06
1.14245e-06
1.14477e-06
1.14833e-06
1.15646e-06
1.14486e-06
1.14207e-06
1.1404e-06
1.13947e-06
1.13907e-06
1.13912e-06
1.13964e-06
1.14072e-06
1.14261e-06
1.14574e-06
1.15605e-06
1.14719e-06
1.14337e-06
1.14093e-06
1.13947e-06
1.13864e-06
1.13828e-06
1.13833e-06
1.1388e-06
1.13976e-06
1.14142e-06
1.14418e-06
1.15073e-06
1.14646e-06
1.14276e-06
1.14046e-06
1.13907e-06
1.13828e-06
1.13794e-06
1.13798e-06
1.13843e-06
1.13935e-06
1.14092e-06
1.14355e-06
1.14913e-06
1.14652e-06
1.14284e-06
1.14052e-06
1.13912e-06
1.13833e-06
1.13798e-06
1.13803e-06
1.13848e-06
1.13941e-06
1.14099e-06
1.14364e-06
1.14944e-06
1.14752e-06
1.14364e-06
1.14114e-06
1.13964e-06
1.1388e-06
1.13843e-06
1.13848e-06
1.13896e-06
1.13994e-06
1.14165e-06
1.14449e-06
1.15104e-06
1.15735e-06
1.14535e-06
1.14245e-06
1.14072e-06
1.13976e-06
1.13935e-06
1.13941e-06
1.13994e-06
1.14107e-06
1.14305e-06
1.14629e-06
1.15593e-06
1.14812e-06
1.14477e-06
1.14261e-06
1.14142e-06
1.14092e-06
1.14099e-06
1.14165e-06
1.14305e-06
1.1455e-06
1.15169e-06
1.14833e-06
1.14574e-06
1.14418e-06
1.14354e-06
1.14364e-06
1.14449e-06
1.14629e-06
1.15169e-06
1.15605e-06
1.15073e-06
1.14913e-06
1.14944e-06
1.15104e-06
1.15593e-06
1.13072e-06
1.12992e-06
1.12989e-06
1.12993e-06
1.13071e-06
1.1306e-06
1.13076e-06
1.13014e-06
1.12977e-06
1.12845e-06
1.12843e-06
1.12845e-06
1.12993e-06
1.13018e-06
1.13079e-06
1.13014e-06
1.12976e-06
1.12849e-06
1.12844e-06
1.12849e-06
1.12844e-06
1.12849e-06
1.12991e-06
1.13017e-06
1.13077e-06
1.13072e-06
1.12977e-06
1.12849e-06
1.12843e-06
1.12846e-06
1.12845e-06
1.12846e-06
1.12843e-06
1.12849e-06
1.1299e-06
1.13018e-06
1.1308e-06
1.12992e-06
1.12845e-06
1.12844e-06
1.12846e-06
1.12842e-06
1.12843e-06
1.12842e-06
1.12846e-06
1.12844e-06
1.12845e-06
1.13033e-06
1.13096e-06
1.12989e-06
1.12843e-06
1.12849e-06
1.12845e-06
1.12843e-06
1.12842e-06
1.12843e-06
1.12845e-06
1.12849e-06
1.12843e-06
1.13035e-06
1.13087e-06
1.12993e-06
1.12845e-06
1.12844e-06
1.12846e-06
1.12842e-06
1.12843e-06
1.12842e-06
1.12846e-06
1.12844e-06
1.12845e-06
1.13035e-06
1.1309e-06
1.13071e-06
1.12993e-06
1.12849e-06
1.12843e-06
1.12846e-06
1.12845e-06
1.12846e-06
1.12843e-06
1.12849e-06
1.13009e-06
1.13025e-06
1.13092e-06
1.1306e-06
1.13018e-06
1.12991e-06
1.12849e-06
1.12844e-06
1.12849e-06
1.12844e-06
1.12849e-06
1.13006e-06
1.13022e-06
1.13022e-06
1.13079e-06
1.13017e-06
1.1299e-06
1.12845e-06
1.12843e-06
1.12845e-06
1.13009e-06
1.13022e-06
1.13027e-06
1.13089e-06
1.13077e-06
1.13018e-06
1.13033e-06
1.13035e-06
1.13035e-06
1.13025e-06
1.13022e-06
1.13089e-06
1.1308e-06
1.13096e-06
1.13087e-06
1.1309e-06
1.13092e-06
1.1211e-06
1.12028e-06
1.12022e-06
1.12026e-06
1.12109e-06
1.12113e-06
1.12112e-06
1.12041e-06
1.11998e-06
1.11869e-06
1.11869e-06
1.11869e-06
1.12013e-06
1.12043e-06
1.12111e-06
1.1204e-06
1.11996e-06
1.11874e-06
1.11874e-06
1.11877e-06
1.11874e-06
1.11874e-06
1.12013e-06
1.12043e-06
1.12111e-06
1.1211e-06
1.11998e-06
1.11874e-06
1.11875e-06
1.1188e-06
1.1188e-06
1.1188e-06
1.11875e-06
1.11874e-06
1.12014e-06
1.12049e-06
1.12115e-06
1.12028e-06
1.11869e-06
1.11874e-06
1.1188e-06
1.11881e-06
1.11883e-06
1.11881e-06
1.1188e-06
1.11874e-06
1.11869e-06
1.12054e-06
1.12128e-06
1.12022e-06
1.11869e-06
1.11877e-06
1.1188e-06
1.11883e-06
1.11884e-06
1.11883e-06
1.1188e-06
1.11878e-06
1.11869e-06
1.12054e-06
1.12129e-06
1.12026e-06
1.11869e-06
1.11874e-06
1.1188e-06
1.11881e-06
1.11883e-06
1.11881e-06
1.1188e-06
1.11874e-06
1.11869e-06
1.12054e-06
1.1213e-06
1.12109e-06
1.12013e-06
1.11874e-06
1.11875e-06
1.1188e-06
1.1188e-06
1.1188e-06
1.11875e-06
1.11874e-06
1.12034e-06
1.12053e-06
1.12128e-06
1.12113e-06
1.12043e-06
1.12013e-06
1.11874e-06
1.11874e-06
1.11878e-06
1.11874e-06
1.11874e-06
1.12032e-06
1.12047e-06
1.12057e-06
1.12111e-06
1.12043e-06
1.12014e-06
1.11869e-06
1.11869e-06
1.11869e-06
1.12034e-06
1.12047e-06
1.12055e-06
1.12126e-06
1.12111e-06
1.12049e-06
1.12054e-06
1.12054e-06
1.12054e-06
1.12053e-06
1.12057e-06
1.12126e-06
1.12115e-06
1.12128e-06
1.12129e-06
1.1213e-06
1.12128e-06
1.11151e-06
1.11068e-06
1.11062e-06
1.11067e-06
1.1115e-06
1.11155e-06
1.11154e-06
1.1108e-06
1.11035e-06
1.10905e-06
1.10905e-06
1.10905e-06
1.1105e-06
1.11082e-06
1.11152e-06
1.1108e-06
1.11033e-06
1.10908e-06
1.10909e-06
1.10911e-06
1.10909e-06
1.10908e-06
1.11049e-06
1.11082e-06
1.11153e-06
1.11151e-06
1.11035e-06
1.10908e-06
1.1091e-06
1.10913e-06
1.10913e-06
1.10913e-06
1.1091e-06
1.10908e-06
1.11051e-06
1.11089e-06
1.11156e-06
1.11068e-06
1.10905e-06
1.10909e-06
1.10913e-06
1.10915e-06
1.10916e-06
1.10915e-06
1.10913e-06
1.10909e-06
1.10905e-06
1.11094e-06
1.1117e-06
1.11062e-06
1.10905e-06
1.10911e-06
1.10913e-06
1.10916e-06
1.10917e-06
1.10917e-06
1.10913e-06
1.10911e-06
1.10905e-06
1.11093e-06
1.11171e-06
1.11067e-06
1.10905e-06
1.10909e-06
1.10913e-06
1.10915e-06
1.10916e-06
1.10915e-06
1.10913e-06
1.10909e-06
1.10905e-06
1.11093e-06
1.11171e-06
1.1115e-06
1.1105e-06
1.10908e-06
1.1091e-06
1.10913e-06
1.10913e-06
1.10913e-06
1.1091e-06
1.10908e-06
1.11071e-06
1.11093e-06
1.1117e-06
1.11155e-06
1.11082e-06
1.11049e-06
1.10908e-06
1.10909e-06
1.10911e-06
1.10909e-06
1.10908e-06
1.11069e-06
1.11086e-06
1.11098e-06
1.11152e-06
1.11082e-06
1.11051e-06
1.10905e-06
1.10905e-06
1.10905e-06
1.11071e-06
1.11086e-06
1.11096e-06
1.11168e-06
1.11153e-06
1.11089e-06
1.11094e-06
1.11093e-06
1.11093e-06
1.11093e-06
1.11098e-06
1.11168e-06
1.11156e-06
1.1117e-06
1.11171e-06
1.11171e-06
1.1117e-06
1.10193e-06
1.10109e-06
1.10103e-06
1.10108e-06
1.10192e-06
1.10196e-06
1.10195e-06
1.10121e-06
1.10076e-06
1.09944e-06
1.09944e-06
1.09944e-06
1.1009e-06
1.10122e-06
1.10194e-06
1.10121e-06
1.10072e-06
1.09945e-06
1.09947e-06
1.09947e-06
1.09947e-06
1.09945e-06
1.10088e-06
1.10122e-06
1.10194e-06
1.10193e-06
1.10076e-06
1.09945e-06
1.09947e-06
1.09949e-06
1.09949e-06
1.09949e-06
1.09947e-06
1.09945e-06
1.10091e-06
1.1013e-06
1.10198e-06
1.10109e-06
1.09944e-06
1.09947e-06
1.09949e-06
1.09951e-06
1.09951e-06
1.09951e-06
1.09949e-06
1.09947e-06
1.09944e-06
1.10134e-06
1.10211e-06
1.10103e-06
1.09944e-06
1.09947e-06
1.09949e-06
1.09951e-06
1.09952e-06
1.09951e-06
1.09949e-06
1.09947e-06
1.09944e-06
1.10133e-06
1.10212e-06
1.10108e-06
1.09944e-06
1.09947e-06
1.09949e-06
1.09951e-06
1.09951e-06
1.09951e-06
1.09949e-06
1.09947e-06
1.09944e-06
1.10134e-06
1.10212e-06
1.10192e-06
1.1009e-06
1.09945e-06
1.09947e-06
1.09949e-06
1.09949e-06
1.09949e-06
1.09947e-06
1.09945e-06
1.10111e-06
1.10134e-06
1.10211e-06
1.10196e-06
1.10122e-06
1.10088e-06
1.09945e-06
1.09947e-06
1.09947e-06
1.09947e-06
1.09945e-06
1.10108e-06
1.10126e-06
1.1014e-06
1.10194e-06
1.10122e-06
1.10091e-06
1.09944e-06
1.09944e-06
1.09944e-06
1.10111e-06
1.10126e-06
1.10137e-06
1.10209e-06
1.10194e-06
1.1013e-06
1.10134e-06
1.10133e-06
1.10134e-06
1.10134e-06
1.1014e-06
1.10209e-06
1.10198e-06
1.10211e-06
1.10212e-06
1.10212e-06
1.10211e-06
1.09234e-06
1.0915e-06
1.09144e-06
1.09149e-06
1.09233e-06
1.09237e-06
1.09236e-06
1.09162e-06
1.09116e-06
1.08984e-06
1.08985e-06
1.08984e-06
1.09131e-06
1.09163e-06
1.09235e-06
1.09162e-06
1.09113e-06
1.08985e-06
1.08986e-06
1.08986e-06
1.08986e-06
1.08985e-06
1.09129e-06
1.09163e-06
1.09235e-06
1.09234e-06
1.09116e-06
1.08985e-06
1.08986e-06
1.08987e-06
1.08987e-06
1.08987e-06
1.08986e-06
1.08985e-06
1.09131e-06
1.09171e-06
1.09239e-06
1.0915e-06
1.08984e-06
1.08986e-06
1.08987e-06
1.08988e-06
1.08989e-06
1.08988e-06
1.08987e-06
1.08986e-06
1.08984e-06
1.09175e-06
1.09252e-06
1.09144e-06
1.08985e-06
1.08986e-06
1.08987e-06
1.08989e-06
1.08989e-06
1.08989e-06
1.08987e-06
1.08986e-06
1.08985e-06
1.09174e-06
1.09253e-06
1.09149e-06
1.08984e-06
1.08986e-06
1.08987e-06
1.08988e-06
1.08989e-06
1.08988e-06
1.08987e-06
1.08986e-06
1.08984e-06
1.09174e-06
1.09253e-06
1.09233e-06
1.09131e-06
1.08985e-06
1.08986e-06
1.08987e-06
1.08987e-06
1.08987e-06
1.08986e-06
1.08985e-06
1.09152e-06
1.09175e-06
1.09252e-06
1.09237e-06
1.09163e-06
1.09129e-06
1.08985e-06
1.08986e-06
1.08986e-06
1.08986e-06
1.08985e-06
1.09149e-06
1.09167e-06
1.09181e-06
1.09235e-06
1.09163e-06
1.09131e-06
1.08984e-06
1.08985e-06
1.08984e-06
1.09152e-06
1.09167e-06
1.09178e-06
1.09251e-06
1.09235e-06
1.09171e-06
1.09175e-06
1.09174e-06
1.09174e-06
1.09175e-06
1.09181e-06
1.09251e-06
1.09239e-06
1.09252e-06
1.09253e-06
1.09253e-06
1.09252e-06
1.08275e-06
1.08191e-06
1.08185e-06
1.0819e-06
1.08274e-06
1.08278e-06
1.08278e-06
1.08203e-06
1.08157e-06
1.08025e-06
1.08025e-06
1.08025e-06
1.08172e-06
1.08204e-06
1.08276e-06
1.08203e-06
1.08154e-06
1.08025e-06
1.08026e-06
1.08026e-06
1.08026e-06
1.08025e-06
1.0817e-06
1.08204e-06
1.08277e-06
1.08275e-06
1.08157e-06
1.08025e-06
1.08026e-06
1.08027e-06
1.08027e-06
1.08027e-06
1.08026e-06
1.08025e-06
1.08172e-06
1.08212e-06
1.0828e-06
1.08191e-06
1.08025e-06
1.08026e-06
1.08027e-06
1.08027e-06
1.08027e-06
1.08027e-06
1.08027e-06
1.08026e-06
1.08025e-06
1.08216e-06
1.08293e-06
1.08185e-06
1.08025e-06
1.08026e-06
1.08027e-06
1.08027e-06
1.08028e-06
1.08027e-06
1.08027e-06
1.08026e-06
1.08025e-06
1.08215e-06
1.08294e-06
1.0819e-06
1.08025e-06
1.08026e-06
1.08027e-06
1.08027e-06
1.08027e-06
1.08027e-06
1.08027e-06
1.08026e-06
1.08025e-06
1.08215e-06
1.08294e-06
1.08274e-06
1.08172e-06
1.08025e-06
1.08026e-06
1.08027e-06
1.08027e-06
1.08027e-06
1.08026e-06
1.08025e-06
1.08193e-06
1.08216e-06
1.08293e-06
1.08278e-06
1.08204e-06
1.0817e-06
1.08025e-06
1.08026e-06
1.08026e-06
1.08026e-06
1.08025e-06
1.08189e-06
1.08208e-06
1.08222e-06
1.08276e-06
1.08204e-06
1.08172e-06
1.08025e-06
1.08025e-06
1.08025e-06
1.08193e-06
1.08208e-06
1.08219e-06
1.08292e-06
1.08277e-06
1.08212e-06
1.08216e-06
1.08215e-06
1.08215e-06
1.08216e-06
1.08222e-06
1.08292e-06
1.0828e-06
1.08293e-06
1.08294e-06
1.08294e-06
1.08293e-06
1.07316e-06
1.07232e-06
1.07226e-06
1.0723e-06
1.07315e-06
1.07319e-06
1.07318e-06
1.07244e-06
1.07198e-06
1.07066e-06
1.07066e-06
1.07066e-06
1.07213e-06
1.07245e-06
1.07317e-06
1.07244e-06
1.07194e-06
1.07066e-06
1.07066e-06
1.07066e-06
1.07066e-06
1.07066e-06
1.0721e-06
1.07245e-06
1.07317e-06
1.07316e-06
1.07198e-06
1.07066e-06
1.07066e-06
1.07067e-06
1.07067e-06
1.07067e-06
1.07066e-06
1.07066e-06
1.07213e-06
1.07253e-06
1.07321e-06
1.07232e-06
1.07066e-06
1.07066e-06
1.07067e-06
1.07067e-06
1.07067e-06
1.07067e-06
1.07067e-06
1.07066e-06
1.07066e-06
1.07257e-06
1.07334e-06
1.07226e-06
1.07066e-06
1.07066e-06
1.07067e-06
1.07067e-06
1.07067e-06
1.07067e-06
1.07067e-06
1.07066e-06
1.07066e-06
1.07256e-06
1.07335e-06
1.0723e-06
1.07066e-06
1.07066e-06
1.07067e-06
1.07067e-06
1.07067e-06
1.07067e-06
1.07067e-06
1.07066e-06
1.07066e-06
1.07256e-06
1.07335e-06
1.07315e-06
1.07213e-06
1.07066e-06
1.07066e-06
1.07067e-06
1.07067e-06
1.07067e-06
1.07066e-06
1.07066e-06
1.07234e-06
1.07257e-06
1.07334e-06
1.07319e-06
1.07245e-06
1.0721e-06
1.07066e-06
1.07066e-06
1.07066e-06
1.07066e-06
1.07066e-06
1.0723e-06
1.07249e-06
1.07263e-06
1.07317e-06
1.07245e-06
1.07213e-06
1.07066e-06
1.07066e-06
1.07066e-06
1.07234e-06
1.07249e-06
1.0726e-06
1.07333e-06
1.07317e-06
1.07253e-06
1.07257e-06
1.07256e-06
1.07256e-06
1.07257e-06
1.07263e-06
1.07333e-06
1.07321e-06
1.07334e-06
1.07335e-06
1.07335e-06
1.07334e-06
1.06357e-06
1.06273e-06
1.06267e-06
1.06271e-06
1.06356e-06
1.0636e-06
1.06359e-06
1.06285e-06
1.06239e-06
1.06107e-06
1.06107e-06
1.06107e-06
1.06254e-06
1.06286e-06
1.06358e-06
1.06285e-06
1.06235e-06
1.06107e-06
1.06107e-06
1.06107e-06
1.06107e-06
1.06107e-06
1.06251e-06
1.06286e-06
1.06358e-06
1.06357e-06
1.06239e-06
1.06107e-06
1.06107e-06
1.06107e-06
1.06107e-06
1.06107e-06
1.06107e-06
1.06107e-06
1.06254e-06
1.06294e-06
1.06362e-06
1.06273e-06
1.06107e-06
1.06107e-06
1.06107e-06
1.06107e-06
1.06107e-06
1.06107e-06
1.06107e-06
1.06107e-06
1.06107e-06
1.06298e-06
1.06375e-06
1.06267e-06
1.06107e-06
1.06107e-06
1.06107e-06
1.06107e-06
1.06107e-06
1.06107e-06
1.06107e-06
1.06107e-06
1.06107e-06
1.06297e-06
1.06376e-06
1.06271e-06
1.06107e-06
1.06107e-06
1.06107e-06
1.06107e-06
1.06107e-06
1.06107e-06
1.06107e-06
1.06107e-06
1.06107e-06
1.06297e-06
1.06376e-06
1.06356e-06
1.06254e-06
1.06107e-06
1.06107e-06
1.06107e-06
1.06107e-06
1.06107e-06
1.06107e-06
1.06107e-06
1.06275e-06
1.06298e-06
1.06375e-06
1.0636e-06
1.06286e-06
1.06251e-06
1.06107e-06
1.06107e-06
1.06107e-06
1.06107e-06
1.06107e-06
1.06271e-06
1.0629e-06
1.06304e-06
1.06358e-06
1.06286e-06
1.06254e-06
1.06107e-06
1.06107e-06
1.06107e-06
1.06275e-06
1.0629e-06
1.06301e-06
1.06374e-06
1.06358e-06
1.06294e-06
1.06298e-06
1.06297e-06
1.06297e-06
1.06298e-06
1.06304e-06
1.06373e-06
1.06362e-06
1.06375e-06
1.06376e-06
1.06376e-06
1.06375e-06
1.05398e-06
1.05314e-06
1.05307e-06
1.05312e-06
1.05397e-06
1.05401e-06
1.054e-06
1.05326e-06
1.0528e-06
1.05148e-06
1.05148e-06
1.05148e-06
1.05294e-06
1.05327e-06
1.05399e-06
1.05326e-06
1.05276e-06
1.05148e-06
1.05148e-06
1.05148e-06
1.05148e-06
1.05148e-06
1.05292e-06
1.05327e-06
1.05399e-06
1.05398e-06
1.0528e-06
1.05148e-06
1.05148e-06
1.05148e-06
1.05148e-06
1.05148e-06
1.05148e-06
1.05148e-06
1.05295e-06
1.05335e-06
1.05403e-06
1.05314e-06
1.05148e-06
1.05148e-06
1.05148e-06
1.05148e-06
1.05148e-06
1.05148e-06
1.05148e-06
1.05148e-06
1.05148e-06
1.05339e-06
1.05416e-06
1.05307e-06
1.05148e-06
1.05148e-06
1.05148e-06
1.05148e-06
1.05148e-06
1.05148e-06
1.05148e-06
1.05148e-06
1.05148e-06
1.05338e-06
1.05417e-06
1.05312e-06
1.05148e-06
1.05148e-06
1.05148e-06
1.05148e-06
1.05148e-06
1.05148e-06
1.05148e-06
1.05148e-06
1.05148e-06
1.05338e-06
1.05417e-06
1.05397e-06
1.05294e-06
1.05148e-06
1.05148e-06
1.05148e-06
1.05148e-06
1.05148e-06
1.05148e-06
1.05148e-06
1.05315e-06
1.05339e-06
1.05416e-06
1.05401e-06
1.05327e-06
1.05292e-06
1.05148e-06
1.05148e-06
1.05148e-06
1.05148e-06
1.05148e-06
1.05312e-06
1.05331e-06
1.05345e-06
1.05399e-06
1.05327e-06
1.05295e-06
1.05148e-06
1.05148e-06
1.05148e-06
1.05315e-06
1.05331e-06
1.05342e-06
1.05414e-06
1.05399e-06
1.05335e-06
1.05339e-06
1.05338e-06
1.05338e-06
1.05339e-06
1.05345e-06
1.05414e-06
1.05403e-06
1.05416e-06
1.05417e-06
1.05417e-06
1.05416e-06
1.04439e-06
1.04355e-06
1.04348e-06
1.04353e-06
1.04438e-06
1.04442e-06
1.04441e-06
1.04367e-06
1.04321e-06
1.04188e-06
1.04188e-06
1.04188e-06
1.04335e-06
1.04368e-06
1.0444e-06
1.04367e-06
1.04317e-06
1.04188e-06
1.04189e-06
1.04189e-06
1.04189e-06
1.04188e-06
1.04333e-06
1.04368e-06
1.0444e-06
1.04439e-06
1.04321e-06
1.04188e-06
1.04189e-06
1.04189e-06
1.04189e-06
1.04189e-06
1.04189e-06
1.04188e-06
1.04336e-06
1.04376e-06
1.04444e-06
1.04355e-06
1.04188e-06
1.04189e-06
1.04189e-06
1.04189e-06
1.04189e-06
1.04189e-06
1.04189e-06
1.04189e-06
1.04188e-06
1.0438e-06
1.04457e-06
1.04348e-06
1.04188e-06
1.04189e-06
1.04189e-06
1.04189e-06
1.04189e-06
1.04189e-06
1.04189e-06
1.04189e-06
1.04188e-06
1.04378e-06
1.04458e-06
1.04353e-06
1.04188e-06
1.04189e-06
1.04189e-06
1.04189e-06
1.04189e-06
1.04189e-06
1.04189e-06
1.04189e-06
1.04188e-06
1.04379e-06
1.04458e-06
1.04438e-06
1.04335e-06
1.04188e-06
1.04189e-06
1.04189e-06
1.04189e-06
1.04189e-06
1.04189e-06
1.04188e-06
1.04356e-06
1.0438e-06
1.04457e-06
1.04442e-06
1.04368e-06
1.04333e-06
1.04188e-06
1.04189e-06
1.04189e-06
1.04189e-06
1.04188e-06
1.04353e-06
1.04372e-06
1.04386e-06
1.0444e-06
1.04368e-06
1.04336e-06
1.04188e-06
1.04188e-06
1.04188e-06
1.04356e-06
1.04372e-06
1.04383e-06
1.04455e-06
1.0444e-06
1.04376e-06
1.0438e-06
1.04378e-06
1.04379e-06
1.0438e-06
1.04386e-06
1.04455e-06
1.04444e-06
1.04457e-06
1.04458e-06
1.04458e-06
1.04457e-06
1.0348e-06
1.03396e-06
1.03389e-06
1.03394e-06
1.03479e-06
1.03483e-06
1.03482e-06
1.03408e-06
1.03362e-06
1.03229e-06
1.03229e-06
1.03229e-06
1.03376e-06
1.03409e-06
1.03481e-06
1.03408e-06
1.03358e-06
1.03229e-06
1.0323e-06
1.03229e-06
1.0323e-06
1.03229e-06
1.03374e-06
1.03409e-06
1.03481e-06
1.0348e-06
1.03362e-06
1.03229e-06
1.03229e-06
1.03229e-06
1.03229e-06
1.03229e-06
1.03229e-06
1.03229e-06
1.03377e-06
1.03417e-06
1.03485e-06
1.03396e-06
1.03229e-06
1.0323e-06
1.03229e-06
1.0323e-06
1.03229e-06
1.0323e-06
1.03229e-06
1.0323e-06
1.03229e-06
1.03421e-06
1.03498e-06
1.03389e-06
1.03229e-06
1.03229e-06
1.03229e-06
1.03229e-06
1.0323e-06
1.03229e-06
1.03229e-06
1.03229e-06
1.03229e-06
1.03419e-06
1.03499e-06
1.03394e-06
1.03229e-06
1.0323e-06
1.03229e-06
1.0323e-06
1.03229e-06
1.0323e-06
1.03229e-06
1.0323e-06
1.03229e-06
1.0342e-06
1.03499e-06
1.03479e-06
1.03376e-06
1.03229e-06
1.03229e-06
1.03229e-06
1.03229e-06
1.03229e-06
1.03229e-06
1.03229e-06
1.03397e-06
1.03421e-06
1.03498e-06
1.03483e-06
1.03409e-06
1.03374e-06
1.03229e-06
1.0323e-06
1.03229e-06
1.0323e-06
1.03229e-06
1.03394e-06
1.03413e-06
1.03427e-06
1.03481e-06
1.03409e-06
1.03377e-06
1.03229e-06
1.03229e-06
1.03229e-06
1.03397e-06
1.03413e-06
1.03424e-06
1.03496e-06
1.03481e-06
1.03417e-06
1.03421e-06
1.03419e-06
1.0342e-06
1.03421e-06
1.03427e-06
1.03496e-06
1.03485e-06
1.03498e-06
1.03499e-06
1.03499e-06
1.03498e-06
1.02521e-06
1.02437e-06
1.0243e-06
1.02435e-06
1.0252e-06
1.02524e-06
1.02523e-06
1.02449e-06
1.02402e-06
1.0227e-06
1.0227e-06
1.0227e-06
1.02417e-06
1.0245e-06
1.02522e-06
1.02449e-06
1.02399e-06
1.0227e-06
1.0227e-06
1.0227e-06
1.0227e-06
1.0227e-06
1.02415e-06
1.0245e-06
1.02522e-06
1.02521e-06
1.02402e-06
1.0227e-06
1.0227e-06
1.0227e-06
1.0227e-06
1.0227e-06
1.0227e-06
1.0227e-06
1.02417e-06
1.02458e-06
1.02526e-06
1.02437e-06
1.0227e-06
1.0227e-06
1.0227e-06
1.0227e-06
1.0227e-06
1.0227e-06
1.0227e-06
1.0227e-06
1.0227e-06
1.02462e-06
1.02539e-06
1.0243e-06
1.0227e-06
1.0227e-06
1.0227e-06
1.0227e-06
1.0227e-06
1.0227e-06
1.0227e-06
1.0227e-06
1.0227e-06
1.0246e-06
1.0254e-06
1.02435e-06
1.0227e-06
1.0227e-06
1.0227e-06
1.0227e-06
1.0227e-06
1.0227e-06
1.0227e-06
1.0227e-06
1.0227e-06
1.02461e-06
1.0254e-06
1.0252e-06
1.02417e-06
1.0227e-06
1.0227e-06
1.0227e-06
1.0227e-06
1.0227e-06
1.0227e-06
1.0227e-06
1.02438e-06
1.02462e-06
1.02539e-06
1.02524e-06
1.0245e-06
1.02415e-06
1.0227e-06
1.0227e-06
1.0227e-06
1.0227e-06
1.0227e-06
1.02435e-06
1.02454e-06
1.02468e-06
1.02522e-06
1.0245e-06
1.02417e-06
1.0227e-06
1.0227e-06
1.0227e-06
1.02438e-06
1.02454e-06
1.02465e-06
1.02537e-06
1.02522e-06
1.02458e-06
1.02462e-06
1.0246e-06
1.02461e-06
1.02462e-06
1.02468e-06
1.02537e-06
1.02526e-06
1.02539e-06
1.0254e-06
1.0254e-06
1.02539e-06
1.01562e-06
1.01478e-06
1.01471e-06
1.01476e-06
1.0156e-06
1.01565e-06
1.01564e-06
1.0149e-06
1.01443e-06
1.01311e-06
1.01311e-06
1.01311e-06
1.01458e-06
1.01491e-06
1.01563e-06
1.0149e-06
1.0144e-06
1.01311e-06
1.01311e-06
1.01311e-06
1.01311e-06
1.01311e-06
1.01456e-06
1.0149e-06
1.01563e-06
1.01562e-06
1.01443e-06
1.01311e-06
1.01311e-06
1.01311e-06
1.01311e-06
1.01311e-06
1.01311e-06
1.01311e-06
1.01458e-06
1.01499e-06
1.01567e-06
1.01478e-06
1.01311e-06
1.01311e-06
1.01311e-06
1.01311e-06
1.01311e-06
1.01311e-06
1.01311e-06
1.01311e-06
1.01311e-06
1.01503e-06
1.0158e-06
1.01471e-06
1.01311e-06
1.01311e-06
1.01311e-06
1.01311e-06
1.01311e-06
1.01311e-06
1.01311e-06
1.01311e-06
1.01311e-06
1.01501e-06
1.01581e-06
1.01476e-06
1.01311e-06
1.01311e-06
1.01311e-06
1.01311e-06
1.01311e-06
1.01311e-06
1.01311e-06
1.01311e-06
1.01311e-06
1.01502e-06
1.01581e-06
1.0156e-06
1.01458e-06
1.01311e-06
1.01311e-06
1.01311e-06
1.01311e-06
1.01311e-06
1.01311e-06
1.01311e-06
1.01479e-06
1.01503e-06
1.0158e-06
1.01565e-06
1.01491e-06
1.01456e-06
1.01311e-06
1.01311e-06
1.01311e-06
1.01311e-06
1.01311e-06
1.01476e-06
1.01495e-06
1.01508e-06
1.01563e-06
1.0149e-06
1.01458e-06
1.01311e-06
1.01311e-06
1.01311e-06
1.01479e-06
1.01495e-06
1.01506e-06
1.01578e-06
1.01563e-06
1.01499e-06
1.01503e-06
1.01501e-06
1.01502e-06
1.01503e-06
1.01508e-06
1.01578e-06
1.01567e-06
1.0158e-06
1.01581e-06
1.01581e-06
1.0158e-06
1.00602e-06
1.00519e-06
1.00512e-06
1.00517e-06
1.00601e-06
1.00606e-06
1.00605e-06
1.00531e-06
1.00484e-06
1.00352e-06
1.00352e-06
1.00352e-06
1.00499e-06
1.00532e-06
1.00604e-06
1.00531e-06
1.00481e-06
1.00352e-06
1.00352e-06
1.00352e-06
1.00352e-06
1.00352e-06
1.00497e-06
1.00531e-06
1.00604e-06
1.00602e-06
1.00484e-06
1.00352e-06
1.00352e-06
1.00352e-06
1.00352e-06
1.00352e-06
1.00352e-06
1.00352e-06
1.00499e-06
1.0054e-06
1.00608e-06
1.00519e-06
1.00352e-06
1.00352e-06
1.00352e-06
1.00352e-06
1.00352e-06
1.00352e-06
1.00352e-06
1.00352e-06
1.00352e-06
1.00544e-06
1.00621e-06
1.00512e-06
1.00352e-06
1.00352e-06
1.00352e-06
1.00352e-06
1.00352e-06
1.00352e-06
1.00352e-06
1.00352e-06
1.00352e-06
1.00542e-06
1.00622e-06
1.00517e-06
1.00352e-06
1.00352e-06
1.00352e-06
1.00352e-06
1.00352e-06
1.00352e-06
1.00352e-06
1.00352e-06
1.00352e-06
1.00543e-06
1.00622e-06
1.00601e-06
1.00499e-06
1.00352e-06
1.00352e-06
1.00352e-06
1.00352e-06
1.00352e-06
1.00352e-06
1.00352e-06
1.0052e-06
1.00544e-06
1.00621e-06
1.00606e-06
1.00532e-06
1.00497e-06
1.00352e-06
1.00352e-06
1.00352e-06
1.00352e-06
1.00352e-06
1.00517e-06
1.00536e-06
1.00549e-06
1.00604e-06
1.00531e-06
1.00499e-06
1.00352e-06
1.00352e-06
1.00352e-06
1.0052e-06
1.00536e-06
1.00547e-06
1.00619e-06
1.00604e-06
1.0054e-06
1.00544e-06
1.00542e-06
1.00543e-06
1.00544e-06
1.00549e-06
1.00619e-06
1.00608e-06
1.00621e-06
1.00622e-06
1.00622e-06
1.00621e-06
9.96434e-07
9.95597e-07
9.9553e-07
9.95579e-07
9.96423e-07
9.96464e-07
9.9646e-07
9.95716e-07
9.95252e-07
9.9393e-07
9.93931e-07
9.9393e-07
9.95401e-07
9.95725e-07
9.96446e-07
9.95716e-07
9.95217e-07
9.9393e-07
9.93932e-07
9.93931e-07
9.93932e-07
9.9393e-07
9.95377e-07
9.95723e-07
9.9645e-07
9.96433e-07
9.95252e-07
9.9393e-07
9.93931e-07
9.9393e-07
9.93931e-07
9.9393e-07
9.93931e-07
9.9393e-07
9.95402e-07
9.95807e-07
9.96485e-07
9.95597e-07
9.9393e-07
9.93932e-07
9.9393e-07
9.93931e-07
9.93931e-07
9.93931e-07
9.9393e-07
9.93932e-07
9.9393e-07
9.95845e-07
9.96619e-07
9.9553e-07
9.93931e-07
9.93931e-07
9.93931e-07
9.93931e-07
9.93931e-07
9.93931e-07
9.93931e-07
9.93931e-07
9.93931e-07
9.9583e-07
9.96627e-07
9.95579e-07
9.9393e-07
9.93932e-07
9.9393e-07
9.93931e-07
9.93931e-07
9.93931e-07
9.9393e-07
9.93932e-07
9.9393e-07
9.95836e-07
9.96628e-07
9.96423e-07
9.95401e-07
9.9393e-07
9.93931e-07
9.9393e-07
9.93931e-07
9.9393e-07
9.93931e-07
9.9393e-07
9.9561e-07
9.95848e-07
9.96616e-07
9.96464e-07
9.95725e-07
9.95377e-07
9.9393e-07
9.93932e-07
9.93931e-07
9.93932e-07
9.9393e-07
9.95576e-07
9.95765e-07
9.95903e-07
9.96446e-07
9.95723e-07
9.95402e-07
9.9393e-07
9.93931e-07
9.9393e-07
9.9561e-07
9.95765e-07
9.95878e-07
9.966e-07
9.9645e-07
9.95807e-07
9.95845e-07
9.9583e-07
9.95836e-07
9.95848e-07
9.95903e-07
9.966e-07
9.96485e-07
9.96619e-07
9.96627e-07
9.96628e-07
9.96616e-07
9.86843e-07
9.86006e-07
9.85939e-07
9.85988e-07
9.86832e-07
9.86873e-07
9.86869e-07
9.86125e-07
9.85661e-07
9.84339e-07
9.8434e-07
9.84339e-07
9.8581e-07
9.86134e-07
9.86855e-07
9.86125e-07
9.85626e-07
9.84339e-07
9.84341e-07
9.8434e-07
9.84341e-07
9.84339e-07
9.85786e-07
9.86132e-07
9.86859e-07
9.86843e-07
9.85661e-07
9.84339e-07
9.8434e-07
9.8434e-07
9.8434e-07
9.8434e-07
9.8434e-07
9.84339e-07
9.85811e-07
9.86216e-07
9.86895e-07
9.86006e-07
9.84339e-07
9.84341e-07
9.8434e-07
9.84341e-07
9.8434e-07
9.84341e-07
9.8434e-07
9.84341e-07
9.84339e-07
9.86254e-07
9.87028e-07
9.85939e-07
9.8434e-07
9.8434e-07
9.8434e-07
9.8434e-07
9.8434e-07
9.8434e-07
9.8434e-07
9.8434e-07
9.8434e-07
9.8624e-07
9.87036e-07
9.85988e-07
9.84339e-07
9.84341e-07
9.8434e-07
9.84341e-07
9.8434e-07
9.84341e-07
9.8434e-07
9.84341e-07
9.84339e-07
9.86245e-07
9.87037e-07
9.86832e-07
9.8581e-07
9.84339e-07
9.8434e-07
9.84339e-07
9.8434e-07
9.84339e-07
9.8434e-07
9.84339e-07
9.86019e-07
9.86257e-07
9.87026e-07
9.86873e-07
9.86134e-07
9.85786e-07
9.84339e-07
9.84341e-07
9.8434e-07
9.84341e-07
9.84339e-07
9.85985e-07
9.86174e-07
9.86312e-07
9.86855e-07
9.86132e-07
9.85811e-07
9.84339e-07
9.8434e-07
9.84339e-07
9.86019e-07
9.86174e-07
9.86288e-07
9.87009e-07
9.86859e-07
9.86216e-07
9.86254e-07
9.8624e-07
9.86245e-07
9.86257e-07
9.86312e-07
9.87009e-07
9.86895e-07
9.87028e-07
9.87036e-07
9.87037e-07
9.87025e-07
9.77252e-07
9.76415e-07
9.76348e-07
9.76397e-07
9.77241e-07
9.77282e-07
9.77278e-07
9.76534e-07
9.7607e-07
9.74748e-07
9.74749e-07
9.74748e-07
9.76219e-07
9.76543e-07
9.77264e-07
9.76534e-07
9.76035e-07
9.74748e-07
9.7475e-07
9.74749e-07
9.7475e-07
9.74749e-07
9.76196e-07
9.76541e-07
9.77268e-07
9.77252e-07
9.7607e-07
9.74748e-07
9.74749e-07
9.74749e-07
9.74749e-07
9.74749e-07
9.74749e-07
9.74749e-07
9.7622e-07
9.76625e-07
9.77304e-07
9.76415e-07
9.74748e-07
9.7475e-07
9.74749e-07
9.7475e-07
9.74749e-07
9.7475e-07
9.74749e-07
9.7475e-07
9.74748e-07
9.76663e-07
9.77437e-07
9.76348e-07
9.74749e-07
9.74749e-07
9.74749e-07
9.74749e-07
9.74749e-07
9.74749e-07
9.74749e-07
9.74749e-07
9.74749e-07
9.76649e-07
9.77445e-07
9.76397e-07
9.74748e-07
9.7475e-07
9.74749e-07
9.7475e-07
9.74749e-07
9.7475e-07
9.74749e-07
9.7475e-07
9.74748e-07
9.76654e-07
9.77446e-07
9.77241e-07
9.76219e-07
9.74749e-07
9.74749e-07
9.74749e-07
9.74749e-07
9.74749e-07
9.74749e-07
9.74749e-07
9.76428e-07
9.76666e-07
9.77435e-07
9.77282e-07
9.76543e-07
9.76195e-07
9.74749e-07
9.7475e-07
9.74749e-07
9.7475e-07
9.74749e-07
9.76394e-07
9.76583e-07
9.76721e-07
9.77264e-07
9.76541e-07
9.7622e-07
9.74748e-07
9.74749e-07
9.74748e-07
9.76428e-07
9.76583e-07
9.76697e-07
9.77418e-07
9.77268e-07
9.76625e-07
9.76663e-07
9.76649e-07
9.76654e-07
9.76666e-07
9.76721e-07
9.77418e-07
9.77304e-07
9.77437e-07
9.77445e-07
9.77446e-07
9.77434e-07
9.67661e-07
9.66824e-07
9.66757e-07
9.66806e-07
9.6765e-07
9.67691e-07
9.67687e-07
9.66943e-07
9.66479e-07
9.65157e-07
9.65158e-07
9.65157e-07
9.66628e-07
9.66952e-07
9.67673e-07
9.66943e-07
9.66444e-07
9.65158e-07
9.65159e-07
9.65158e-07
9.65159e-07
9.65158e-07
9.66605e-07
9.6695e-07
9.67677e-07
9.67661e-07
9.66479e-07
9.65158e-07
9.65158e-07
9.65158e-07
9.65158e-07
9.65158e-07
9.65158e-07
9.65158e-07
9.66629e-07
9.67034e-07
9.67713e-07
9.66824e-07
9.65157e-07
9.65159e-07
9.65158e-07
9.65159e-07
9.65158e-07
9.65159e-07
9.65158e-07
9.65159e-07
9.65157e-07
9.67072e-07
9.67846e-07
9.66757e-07
9.65158e-07
9.65158e-07
9.65158e-07
9.65158e-07
9.65158e-07
9.65158e-07
9.65158e-07
9.65158e-07
9.65158e-07
9.67058e-07
9.67854e-07
9.66806e-07
9.65157e-07
9.65159e-07
9.65158e-07
9.65159e-07
9.65158e-07
9.65159e-07
9.65158e-07
9.65159e-07
9.65157e-07
9.67064e-07
9.67855e-07
9.6765e-07
9.66628e-07
9.65158e-07
9.65158e-07
9.65158e-07
9.65158e-07
9.65158e-07
9.65158e-07
9.65158e-07
9.66837e-07
9.67075e-07
9.67844e-07
9.67691e-07
9.66952e-07
9.66605e-07
9.65158e-07
9.65159e-07
9.65158e-07
9.65159e-07
9.65158e-07
9.66803e-07
9.66992e-07
9.6713e-07
9.67673e-07
9.6695e-07
9.66629e-07
9.65157e-07
9.65158e-07
9.65157e-07
9.66837e-07
9.66992e-07
9.67106e-07
9.67827e-07
9.67677e-07
9.67034e-07
9.67072e-07
9.67058e-07
9.67064e-07
9.67075e-07
9.6713e-07
9.67827e-07
9.67713e-07
9.67846e-07
9.67854e-07
9.67855e-07
9.67844e-07
9.5807e-07
9.57233e-07
9.57166e-07
9.57215e-07
9.58059e-07
9.58101e-07
9.58096e-07
9.57352e-07
9.56888e-07
9.55566e-07
9.55567e-07
9.55566e-07
9.57037e-07
9.57361e-07
9.58082e-07
9.57352e-07
9.56853e-07
9.55567e-07
9.55568e-07
9.55567e-07
9.55568e-07
9.55567e-07
9.57014e-07
9.57359e-07
9.58086e-07
9.5807e-07
9.56888e-07
9.55567e-07
9.55567e-07
9.55567e-07
9.55567e-07
9.55567e-07
9.55567e-07
9.55567e-07
9.57038e-07
9.57444e-07
9.58122e-07
9.57233e-07
9.55566e-07
9.55568e-07
9.55567e-07
9.55568e-07
9.55567e-07
9.55568e-07
9.55567e-07
9.55568e-07
9.55566e-07
9.57481e-07
9.58255e-07
9.57166e-07
9.55567e-07
9.55567e-07
9.55567e-07
9.55567e-07
9.55567e-07
9.55567e-07
9.55567e-07
9.55567e-07
9.55567e-07
9.57467e-07
9.58263e-07
9.57215e-07
9.55566e-07
9.55568e-07
9.55567e-07
9.55568e-07
9.55567e-07
9.55568e-07
9.55567e-07
9.55568e-07
9.55566e-07
9.57473e-07
9.58264e-07
9.58059e-07
9.57037e-07
9.55567e-07
9.55567e-07
9.55567e-07
9.55567e-07
9.55567e-07
9.55567e-07
9.55567e-07
9.57246e-07
9.57484e-07
9.58253e-07
9.58101e-07
9.57361e-07
9.57014e-07
9.55567e-07
9.55568e-07
9.55567e-07
9.55568e-07
9.55567e-07
9.57212e-07
9.57401e-07
9.57539e-07
9.58082e-07
9.57359e-07
9.57038e-07
9.55566e-07
9.55567e-07
9.55566e-07
9.57246e-07
9.57401e-07
9.57515e-07
9.58237e-07
9.58086e-07
9.57444e-07
9.57481e-07
9.57467e-07
9.57473e-07
9.57484e-07
9.57539e-07
9.58237e-07
9.58122e-07
9.58255e-07
9.58263e-07
9.58264e-07
9.58253e-07
9.48479e-07
9.47642e-07
9.47576e-07
9.47624e-07
9.48468e-07
9.4851e-07
9.48505e-07
9.47761e-07
9.47297e-07
9.45976e-07
9.45976e-07
9.45976e-07
9.47446e-07
9.47771e-07
9.48492e-07
9.47761e-07
9.47262e-07
9.45976e-07
9.45977e-07
9.45976e-07
9.45977e-07
9.45976e-07
9.47423e-07
9.47768e-07
9.48495e-07
9.48479e-07
9.47297e-07
9.45976e-07
9.45976e-07
9.45976e-07
9.45976e-07
9.45976e-07
9.45976e-07
9.45976e-07
9.47447e-07
9.47853e-07
9.48531e-07
9.47642e-07
9.45976e-07
9.45977e-07
9.45976e-07
9.45977e-07
9.45976e-07
9.45977e-07
9.45976e-07
9.45977e-07
9.45976e-07
9.4789e-07
9.48664e-07
9.47575e-07
9.45976e-07
9.45976e-07
9.45976e-07
9.45976e-07
9.45976e-07
9.45976e-07
9.45976e-07
9.45976e-07
9.45976e-07
9.47876e-07
9.48672e-07
9.47624e-07
9.45976e-07
9.45977e-07
9.45976e-07
9.45977e-07
9.45976e-07
9.45977e-07
9.45976e-07
9.45977e-07