/*--------------------------------*- C++ -*----------------------------------*\
| =========                 |                                                 |
| \\      /  F ield         | OpenFOAM: The Open Source CFD Toolbox           |
|  \\    /   O peration     | Version:  v2012                                 |
|   \\  /    A nd           | Website:  www.openfoam.com                      |
|    \\/     M anipulation  |                                                 |
\*---------------------------------------------------------------------------*/
FoamFile
{
    version     2.0;
    format      ascii;
    class       volScalarField;
    location    "60";
    object      p;
}
// * * * * * * * * * * * * * * * * * * * * * * * * * * * * * * * * * * * * * //

dimensions      [0 2 -2 0 0 0 0];


internalField   nonuniform List<scalar> 
292667
(
1.12103e-06
1.1119e-06
1.11119e-06
1.11125e-06
1.11221e-06
1.12191e-06
1.1121e-06
1.10966e-06
1.10822e-06
1.10762e-06
1.1077e-06
1.10847e-06
1.11012e-06
1.11279e-06
1.1121e-06
1.10894e-06
1.10696e-06
1.10586e-06
1.1054e-06
1.10546e-06
1.10606e-06
1.10733e-06
1.10956e-06
1.11298e-06
1.12103e-06
1.10966e-06
1.10696e-06
1.10534e-06
1.10444e-06
1.10406e-06
1.10411e-06
1.10461e-06
1.10566e-06
1.10748e-06
1.1105e-06
1.12058e-06
1.1119e-06
1.10822e-06
1.10586e-06
1.10444e-06
1.10364e-06
1.10329e-06
1.10334e-06
1.10379e-06
1.10472e-06
1.10633e-06
1.109e-06
1.11535e-06
1.11119e-06
1.10762e-06
1.1054e-06
1.10406e-06
1.10329e-06
1.10296e-06
1.10301e-06
1.10344e-06
1.10433e-06
1.10585e-06
1.10838e-06
1.11379e-06
1.11125e-06
1.1077e-06
1.10546e-06
1.10411e-06
1.10334e-06
1.10301e-06
1.10305e-06
1.10349e-06
1.10438e-06
1.10592e-06
1.10847e-06
1.11409e-06
1.11221e-06
1.10847e-06
1.10606e-06
1.10461e-06
1.10379e-06
1.10344e-06
1.10349e-06
1.10395e-06
1.1049e-06
1.10655e-06
1.10929e-06
1.11565e-06
1.12191e-06
1.11012e-06
1.10733e-06
1.10566e-06
1.10472e-06
1.10433e-06
1.10438e-06
1.1049e-06
1.10599e-06
1.10791e-06
1.11103e-06
1.12045e-06
1.11279e-06
1.10956e-06
1.10748e-06
1.10633e-06
1.10585e-06
1.10592e-06
1.10655e-06
1.10791e-06
1.11027e-06
1.11631e-06
1.11298e-06
1.1105e-06
1.109e-06
1.10838e-06
1.10847e-06
1.10929e-06
1.11103e-06
1.11631e-06
1.12057e-06
1.11535e-06
1.11379e-06
1.11409e-06
1.11565e-06
1.12045e-06
1.09593e-06
1.09519e-06
1.09516e-06
1.09521e-06
1.09594e-06
1.09581e-06
1.09597e-06
1.09539e-06
1.09504e-06
1.09378e-06
1.09376e-06
1.09378e-06
1.0952e-06
1.09545e-06
1.09601e-06
1.09539e-06
1.09503e-06
1.09383e-06
1.09377e-06
1.09382e-06
1.09378e-06
1.09383e-06
1.09518e-06
1.09543e-06
1.09599e-06
1.09593e-06
1.09504e-06
1.09383e-06
1.09377e-06
1.09379e-06
1.09378e-06
1.09379e-06
1.09377e-06
1.09383e-06
1.09518e-06
1.09546e-06
1.09602e-06
1.09519e-06
1.09378e-06
1.09378e-06
1.09379e-06
1.09376e-06
1.09376e-06
1.09376e-06
1.09379e-06
1.09378e-06
1.09378e-06
1.09561e-06
1.09618e-06
1.09516e-06
1.09376e-06
1.09382e-06
1.09378e-06
1.09376e-06
1.09375e-06
1.09376e-06
1.09378e-06
1.09382e-06
1.09376e-06
1.09563e-06
1.09611e-06
1.09521e-06
1.09378e-06
1.09378e-06
1.09379e-06
1.09376e-06
1.09376e-06
1.09376e-06
1.09379e-06
1.09377e-06
1.09378e-06
1.09562e-06
1.09613e-06
1.09594e-06
1.0952e-06
1.09383e-06
1.09377e-06
1.09379e-06
1.09378e-06
1.09379e-06
1.09377e-06
1.09383e-06
1.09537e-06
1.09552e-06
1.09614e-06
1.09581e-06
1.09545e-06
1.09518e-06
1.09383e-06
1.09378e-06
1.09382e-06
1.09378e-06
1.09383e-06
1.09534e-06
1.09549e-06
1.09549e-06
1.09601e-06
1.09543e-06
1.09518e-06
1.09378e-06
1.09376e-06
1.09378e-06
1.09537e-06
1.09549e-06
1.09553e-06
1.09611e-06
1.09599e-06
1.09546e-06
1.09561e-06
1.09563e-06
1.09562e-06
1.09552e-06
1.09549e-06
1.09611e-06
1.09602e-06
1.09618e-06
1.09611e-06
1.09613e-06
1.09614e-06
1.08661e-06
1.08584e-06
1.08578e-06
1.08582e-06
1.08661e-06
1.08664e-06
1.08663e-06
1.08596e-06
1.08554e-06
1.08432e-06
1.08432e-06
1.08432e-06
1.0857e-06
1.08599e-06
1.08663e-06
1.08596e-06
1.08552e-06
1.08437e-06
1.08437e-06
1.0844e-06
1.08437e-06
1.08437e-06
1.0857e-06
1.08599e-06
1.08663e-06
1.08661e-06
1.08554e-06
1.08437e-06
1.08438e-06
1.08443e-06
1.08443e-06
1.08443e-06
1.08438e-06
1.08437e-06
1.08571e-06
1.08605e-06
1.08666e-06
1.08584e-06
1.08432e-06
1.08437e-06
1.08443e-06
1.08444e-06
1.08446e-06
1.08444e-06
1.08443e-06
1.08437e-06
1.08432e-06
1.08611e-06
1.0868e-06
1.08578e-06
1.08432e-06
1.0844e-06
1.08443e-06
1.08446e-06
1.08446e-06
1.08446e-06
1.08443e-06
1.0844e-06
1.08432e-06
1.08611e-06
1.08682e-06
1.08582e-06
1.08432e-06
1.08437e-06
1.08443e-06
1.08444e-06
1.08446e-06
1.08444e-06
1.08443e-06
1.08437e-06
1.08432e-06
1.08611e-06
1.08682e-06
1.08661e-06
1.0857e-06
1.08437e-06
1.08438e-06
1.08443e-06
1.08443e-06
1.08443e-06
1.08438e-06
1.08437e-06
1.08591e-06
1.08609e-06
1.0868e-06
1.08664e-06
1.08599e-06
1.0857e-06
1.08437e-06
1.08437e-06
1.0844e-06
1.08437e-06
1.08437e-06
1.08589e-06
1.08603e-06
1.08612e-06
1.08663e-06
1.08599e-06
1.08571e-06
1.08432e-06
1.08432e-06
1.08432e-06
1.08591e-06
1.08603e-06
1.08611e-06
1.08678e-06
1.08663e-06
1.08605e-06
1.08611e-06
1.08611e-06
1.08611e-06
1.08609e-06
1.08612e-06
1.08678e-06
1.08666e-06
1.0868e-06
1.08682e-06
1.08682e-06
1.0868e-06
1.07732e-06
1.07654e-06
1.07647e-06
1.07652e-06
1.07732e-06
1.07735e-06
1.07734e-06
1.07665e-06
1.07621e-06
1.07498e-06
1.07498e-06
1.07498e-06
1.07636e-06
1.07667e-06
1.07734e-06
1.07665e-06
1.07619e-06
1.075e-06
1.07501e-06
1.07503e-06
1.07501e-06
1.075e-06
1.07635e-06
1.07667e-06
1.07734e-06
1.07732e-06
1.07621e-06
1.075e-06
1.07503e-06
1.07506e-06
1.07506e-06
1.07506e-06
1.07503e-06
1.075e-06
1.07637e-06
1.07674e-06
1.07737e-06
1.07654e-06
1.07498e-06
1.07501e-06
1.07506e-06
1.07507e-06
1.07509e-06
1.07507e-06
1.07506e-06
1.07501e-06
1.07498e-06
1.07679e-06
1.07751e-06
1.07647e-06
1.07498e-06
1.07503e-06
1.07506e-06
1.07509e-06
1.07509e-06
1.07509e-06
1.07506e-06
1.07503e-06
1.07498e-06
1.07679e-06
1.07753e-06
1.07652e-06
1.07498e-06
1.07501e-06
1.07506e-06
1.07507e-06
1.07509e-06
1.07507e-06
1.07506e-06
1.07501e-06
1.07498e-06
1.07679e-06
1.07753e-06
1.07732e-06
1.07636e-06
1.075e-06
1.07503e-06
1.07506e-06
1.07506e-06
1.07506e-06
1.07503e-06
1.075e-06
1.07658e-06
1.07679e-06
1.07751e-06
1.07735e-06
1.07667e-06
1.07635e-06
1.075e-06
1.07501e-06
1.07503e-06
1.07501e-06
1.075e-06
1.07655e-06
1.07671e-06
1.07683e-06
1.07734e-06
1.07667e-06
1.07637e-06
1.07498e-06
1.07498e-06
1.07498e-06
1.07658e-06
1.07671e-06
1.07681e-06
1.07749e-06
1.07734e-06
1.07674e-06
1.07679e-06
1.07679e-06
1.07679e-06
1.07679e-06
1.07683e-06
1.07749e-06
1.07737e-06
1.07751e-06
1.07753e-06
1.07753e-06
1.07751e-06
1.06803e-06
1.06724e-06
1.06718e-06
1.06722e-06
1.06803e-06
1.06806e-06
1.06805e-06
1.06735e-06
1.06691e-06
1.06566e-06
1.06566e-06
1.06566e-06
1.06706e-06
1.06737e-06
1.06805e-06
1.06735e-06
1.06688e-06
1.06567e-06
1.06569e-06
1.06569e-06
1.06569e-06
1.06567e-06
1.06704e-06
1.06736e-06
1.06805e-06
1.06803e-06
1.06691e-06
1.06567e-06
1.06569e-06
1.06571e-06
1.06571e-06
1.06571e-06
1.06569e-06
1.06567e-06
1.06706e-06
1.06745e-06
1.06808e-06
1.06724e-06
1.06566e-06
1.06569e-06
1.06571e-06
1.06572e-06
1.06573e-06
1.06572e-06
1.06571e-06
1.06569e-06
1.06566e-06
1.06749e-06
1.06822e-06
1.06718e-06
1.06566e-06
1.06569e-06
1.06571e-06
1.06573e-06
1.06574e-06
1.06573e-06
1.06571e-06
1.06569e-06
1.06566e-06
1.06748e-06
1.06823e-06
1.06722e-06
1.06566e-06
1.06569e-06
1.06571e-06
1.06572e-06
1.06573e-06
1.06572e-06
1.06571e-06
1.06569e-06
1.06566e-06
1.06749e-06
1.06823e-06
1.06803e-06
1.06706e-06
1.06567e-06
1.06569e-06
1.06571e-06
1.06571e-06
1.06571e-06
1.06569e-06
1.06567e-06
1.06727e-06
1.06749e-06
1.06821e-06
1.06806e-06
1.06737e-06
1.06704e-06
1.06567e-06
1.06569e-06
1.06569e-06
1.06569e-06
1.06567e-06
1.06724e-06
1.06741e-06
1.06754e-06
1.06805e-06
1.06736e-06
1.06706e-06
1.06566e-06
1.06566e-06
1.06566e-06
1.06727e-06
1.06741e-06
1.06752e-06
1.0682e-06
1.06805e-06
1.06745e-06
1.06749e-06
1.06748e-06
1.06749e-06
1.06749e-06
1.06754e-06
1.0682e-06
1.06808e-06
1.06822e-06
1.06823e-06
1.06823e-06
1.06821e-06
1.05874e-06
1.05794e-06
1.05788e-06
1.05793e-06
1.05873e-06
1.05877e-06
1.05876e-06
1.05806e-06
1.05761e-06
1.05636e-06
1.05636e-06
1.05636e-06
1.05776e-06
1.05807e-06
1.05875e-06
1.05806e-06
1.05758e-06
1.05637e-06
1.05637e-06
1.05638e-06
1.05637e-06
1.05637e-06
1.05774e-06
1.05807e-06
1.05876e-06
1.05874e-06
1.05761e-06
1.05637e-06
1.05638e-06
1.05639e-06
1.05639e-06
1.05639e-06
1.05638e-06
1.05637e-06
1.05776e-06
1.05815e-06
1.05879e-06
1.05794e-06
1.05636e-06
1.05637e-06
1.05639e-06
1.0564e-06
1.0564e-06
1.0564e-06
1.05639e-06
1.05637e-06
1.05636e-06
1.0582e-06
1.05893e-06
1.05788e-06
1.05636e-06
1.05638e-06
1.05639e-06
1.0564e-06
1.0564e-06
1.0564e-06
1.05639e-06
1.05638e-06
1.05636e-06
1.05819e-06
1.05894e-06
1.05793e-06
1.05636e-06
1.05637e-06
1.05639e-06
1.0564e-06
1.0564e-06
1.0564e-06
1.05639e-06
1.05637e-06
1.05636e-06
1.05819e-06
1.05894e-06
1.05873e-06
1.05776e-06
1.05637e-06
1.05638e-06
1.05639e-06
1.05639e-06
1.05639e-06
1.05638e-06
1.05637e-06
1.05797e-06
1.0582e-06
1.05892e-06
1.05877e-06
1.05807e-06
1.05774e-06
1.05637e-06
1.05637e-06
1.05638e-06
1.05637e-06
1.05637e-06
1.05794e-06
1.05811e-06
1.05825e-06
1.05875e-06
1.05807e-06
1.05776e-06
1.05636e-06
1.05636e-06
1.05636e-06
1.05797e-06
1.05811e-06
1.05822e-06
1.0589e-06
1.05876e-06
1.05815e-06
1.0582e-06
1.05819e-06
1.05819e-06
1.0582e-06
1.05824e-06
1.0589e-06
1.05879e-06
1.05893e-06
1.05894e-06
1.05894e-06
1.05892e-06
1.04944e-06
1.04865e-06
1.04858e-06
1.04863e-06
1.04944e-06
1.04947e-06
1.04946e-06
1.04876e-06
1.04831e-06
1.04706e-06
1.04706e-06
1.04706e-06
1.04846e-06
1.04877e-06
1.04946e-06
1.04876e-06
1.04828e-06
1.04706e-06
1.04707e-06
1.04707e-06
1.04707e-06
1.04706e-06
1.04844e-06
1.04877e-06
1.04946e-06
1.04944e-06
1.04831e-06
1.04706e-06
1.04707e-06
1.04707e-06
1.04708e-06
1.04707e-06
1.04707e-06
1.04706e-06
1.04846e-06
1.04886e-06
1.04949e-06
1.04865e-06
1.04706e-06
1.04707e-06
1.04707e-06
1.04708e-06
1.04708e-06
1.04708e-06
1.04707e-06
1.04707e-06
1.04706e-06
1.0489e-06
1.04963e-06
1.04858e-06
1.04706e-06
1.04707e-06
1.04708e-06
1.04708e-06
1.04708e-06
1.04708e-06
1.04708e-06
1.04707e-06
1.04706e-06
1.04889e-06
1.04964e-06
1.04863e-06
1.04706e-06
1.04707e-06
1.04707e-06
1.04708e-06
1.04708e-06
1.04708e-06
1.04707e-06
1.04707e-06
1.04706e-06
1.04889e-06
1.04964e-06
1.04944e-06
1.04846e-06
1.04706e-06
1.04707e-06
1.04707e-06
1.04708e-06
1.04707e-06
1.04707e-06
1.04706e-06
1.04867e-06
1.0489e-06
1.04962e-06
1.04947e-06
1.04877e-06
1.04844e-06
1.04706e-06
1.04707e-06
1.04707e-06
1.04707e-06
1.04706e-06
1.04864e-06
1.04882e-06
1.04895e-06
1.04946e-06
1.04877e-06
1.04846e-06
1.04706e-06
1.04706e-06
1.04706e-06
1.04867e-06
1.04882e-06
1.04893e-06
1.04961e-06
1.04946e-06
1.04886e-06
1.0489e-06
1.04889e-06
1.04889e-06
1.0489e-06
1.04895e-06
1.04961e-06
1.04949e-06
1.04963e-06
1.04964e-06
1.04964e-06
1.04962e-06
1.04014e-06
1.03935e-06
1.03929e-06
1.03933e-06
1.04014e-06
1.04018e-06
1.04017e-06
1.03946e-06
1.03901e-06
1.03776e-06
1.03776e-06
1.03776e-06
1.03916e-06
1.03948e-06
1.04016e-06
1.03946e-06
1.03898e-06
1.03776e-06
1.03777e-06
1.03777e-06
1.03777e-06
1.03776e-06
1.03914e-06
1.03947e-06
1.04016e-06
1.04014e-06
1.03901e-06
1.03776e-06
1.03777e-06
1.03777e-06
1.03777e-06
1.03777e-06
1.03777e-06
1.03776e-06
1.03917e-06
1.03956e-06
1.04019e-06
1.03935e-06
1.03776e-06
1.03777e-06
1.03777e-06
1.03777e-06
1.03777e-06
1.03777e-06
1.03777e-06
1.03777e-06
1.03776e-06
1.0396e-06
1.04033e-06
1.03929e-06
1.03776e-06
1.03777e-06
1.03777e-06
1.03777e-06
1.03778e-06
1.03777e-06
1.03777e-06
1.03777e-06
1.03776e-06
1.03959e-06
1.04035e-06
1.03933e-06
1.03776e-06
1.03777e-06
1.03777e-06
1.03777e-06
1.03777e-06
1.03777e-06
1.03777e-06
1.03777e-06
1.03776e-06
1.0396e-06
1.04035e-06
1.04014e-06
1.03916e-06
1.03776e-06
1.03777e-06
1.03777e-06
1.03777e-06
1.03777e-06
1.03777e-06
1.03776e-06
1.03938e-06
1.0396e-06
1.04033e-06
1.04018e-06
1.03948e-06
1.03914e-06
1.03776e-06
1.03777e-06
1.03777e-06
1.03777e-06
1.03776e-06
1.03934e-06
1.03952e-06
1.03965e-06
1.04016e-06
1.03947e-06
1.03917e-06
1.03776e-06
1.03776e-06
1.03776e-06
1.03938e-06
1.03952e-06
1.03963e-06
1.04031e-06
1.04016e-06
1.03956e-06
1.0396e-06
1.03959e-06
1.0396e-06
1.0396e-06
1.03965e-06
1.04031e-06
1.04019e-06
1.04033e-06
1.04035e-06
1.04035e-06
1.04033e-06
1.03085e-06
1.03005e-06
1.02999e-06
1.03004e-06
1.03085e-06
1.03088e-06
1.03087e-06
1.03017e-06
1.02972e-06
1.02846e-06
1.02846e-06
1.02846e-06
1.02987e-06
1.03018e-06
1.03087e-06
1.03017e-06
1.02968e-06
1.02846e-06
1.02847e-06
1.02847e-06
1.02847e-06
1.02846e-06
1.02984e-06
1.03018e-06
1.03087e-06
1.03085e-06
1.02972e-06
1.02846e-06
1.02847e-06
1.02847e-06
1.02847e-06
1.02847e-06
1.02847e-06
1.02846e-06
1.02987e-06
1.03026e-06
1.0309e-06
1.03005e-06
1.02846e-06
1.02847e-06
1.02847e-06
1.02847e-06
1.02847e-06
1.02847e-06
1.02847e-06
1.02847e-06
1.02846e-06
1.03031e-06
1.03104e-06
1.02999e-06
1.02846e-06
1.02847e-06
1.02847e-06
1.02847e-06
1.02847e-06
1.02847e-06
1.02847e-06
1.02847e-06
1.02846e-06
1.0303e-06
1.03105e-06
1.03004e-06
1.02846e-06
1.02847e-06
1.02847e-06
1.02847e-06
1.02847e-06
1.02847e-06
1.02847e-06
1.02847e-06
1.02846e-06
1.0303e-06
1.03105e-06
1.03085e-06
1.02987e-06
1.02846e-06
1.02847e-06
1.02847e-06
1.02847e-06
1.02847e-06
1.02847e-06
1.02846e-06
1.03008e-06
1.03031e-06
1.03103e-06
1.03088e-06
1.03018e-06
1.02984e-06
1.02846e-06
1.02847e-06
1.02847e-06
1.02847e-06
1.02846e-06
1.03005e-06
1.03022e-06
1.03036e-06
1.03087e-06
1.03018e-06
1.02987e-06
1.02846e-06
1.02846e-06
1.02846e-06
1.03008e-06
1.03022e-06
1.03033e-06
1.03101e-06
1.03087e-06
1.03026e-06
1.03031e-06
1.0303e-06
1.0303e-06
1.03031e-06
1.03036e-06
1.03101e-06
1.0309e-06
1.03104e-06
1.03105e-06
1.03105e-06
1.03103e-06
1.02155e-06
1.02076e-06
1.02069e-06
1.02074e-06
1.02155e-06
1.02158e-06
1.02157e-06
1.02087e-06
1.02042e-06
1.01917e-06
1.01917e-06
1.01917e-06
1.02057e-06
1.02088e-06
1.02157e-06
1.02087e-06
1.02039e-06
1.01917e-06
1.01917e-06
1.01917e-06
1.01917e-06
1.01917e-06
1.02055e-06
1.02088e-06
1.02157e-06
1.02155e-06
1.02042e-06
1.01917e-06
1.01917e-06
1.01917e-06
1.01917e-06
1.01917e-06
1.01917e-06
1.01917e-06
1.02057e-06
1.02097e-06
1.0216e-06
1.02076e-06
1.01917e-06
1.01917e-06
1.01917e-06
1.01917e-06
1.01917e-06
1.01917e-06
1.01917e-06
1.01917e-06
1.01917e-06
1.02101e-06
1.02174e-06
1.02069e-06
1.01917e-06
1.01917e-06
1.01917e-06
1.01917e-06
1.01917e-06
1.01917e-06
1.01917e-06
1.01917e-06
1.01917e-06
1.021e-06
1.02175e-06
1.02074e-06
1.01917e-06
1.01917e-06
1.01917e-06
1.01917e-06
1.01917e-06
1.01917e-06
1.01917e-06
1.01917e-06
1.01917e-06
1.021e-06
1.02175e-06
1.02155e-06
1.02057e-06
1.01917e-06
1.01917e-06
1.01917e-06
1.01917e-06
1.01917e-06
1.01917e-06
1.01917e-06
1.02078e-06
1.02101e-06
1.02174e-06
1.02158e-06
1.02088e-06
1.02055e-06
1.01917e-06
1.01917e-06
1.01917e-06
1.01917e-06
1.01917e-06
1.02075e-06
1.02093e-06
1.02106e-06
1.02157e-06
1.02088e-06
1.02057e-06
1.01917e-06
1.01917e-06
1.01917e-06
1.02078e-06
1.02093e-06
1.02104e-06
1.02172e-06
1.02157e-06
1.02097e-06
1.02101e-06
1.021e-06
1.021e-06
1.02101e-06
1.02106e-06
1.02172e-06
1.0216e-06
1.02174e-06
1.02175e-06
1.02175e-06
1.02174e-06
1.01225e-06
1.01146e-06
1.0114e-06
1.01144e-06
1.01225e-06
1.01229e-06
1.01228e-06
1.01157e-06
1.01112e-06
1.00987e-06
1.00987e-06
1.00987e-06
1.01127e-06
1.01159e-06
1.01227e-06
1.01157e-06
1.01109e-06
1.00987e-06
1.00987e-06
1.00987e-06
1.00987e-06
1.00987e-06
1.01125e-06
1.01158e-06
1.01228e-06
1.01225e-06
1.01112e-06
1.00987e-06
1.00987e-06
1.00987e-06
1.00987e-06
1.00987e-06
1.00987e-06
1.00987e-06
1.01128e-06
1.01167e-06
1.0123e-06
1.01146e-06
1.00987e-06
1.00987e-06
1.00987e-06
1.00987e-06
1.00987e-06
1.00987e-06
1.00987e-06
1.00987e-06
1.00987e-06
1.01171e-06
1.01244e-06
1.0114e-06
1.00987e-06
1.00987e-06
1.00987e-06
1.00987e-06
1.00987e-06
1.00987e-06
1.00987e-06
1.00987e-06
1.00987e-06
1.0117e-06
1.01246e-06
1.01144e-06
1.00987e-06
1.00987e-06
1.00987e-06
1.00987e-06
1.00987e-06
1.00987e-06
1.00987e-06
1.00987e-06
1.00987e-06
1.01171e-06
1.01246e-06
1.01225e-06
1.01127e-06
1.00987e-06
1.00987e-06
1.00987e-06
1.00987e-06
1.00987e-06
1.00987e-06
1.00987e-06
1.01149e-06
1.01171e-06
1.01244e-06
1.01229e-06
1.01159e-06
1.01125e-06
1.00987e-06
1.00987e-06
1.00987e-06
1.00987e-06
1.00987e-06
1.01145e-06
1.01163e-06
1.01176e-06
1.01227e-06
1.01158e-06
1.01128e-06
1.00987e-06
1.00987e-06
1.00987e-06
1.01149e-06
1.01163e-06
1.01174e-06
1.01242e-06
1.01228e-06
1.01167e-06
1.01171e-06
1.0117e-06
1.01171e-06
1.01171e-06
1.01176e-06
1.01242e-06
1.0123e-06
1.01244e-06
1.01246e-06
1.01246e-06
1.01244e-06
1.00296e-06
1.00216e-06
1.0021e-06
1.00215e-06
1.00296e-06
1.00299e-06
1.00298e-06
1.00228e-06
1.00183e-06
1.00057e-06
1.00057e-06
1.00057e-06
1.00198e-06
1.00229e-06
1.00298e-06
1.00228e-06
1.00179e-06
1.00057e-06
1.00057e-06
1.00057e-06
1.00057e-06
1.00057e-06
1.00195e-06
1.00229e-06
1.00298e-06
1.00296e-06
1.00183e-06
1.00057e-06
1.00057e-06
1.00057e-06
1.00057e-06
1.00057e-06
1.00057e-06
1.00057e-06
1.00198e-06
1.00237e-06
1.00301e-06
1.00216e-06
1.00057e-06
1.00057e-06
1.00057e-06
1.00057e-06
1.00057e-06
1.00057e-06
1.00057e-06
1.00057e-06
1.00057e-06
1.00242e-06
1.00315e-06
1.0021e-06
1.00057e-06
1.00057e-06
1.00057e-06
1.00057e-06
1.00057e-06
1.00057e-06
1.00057e-06
1.00057e-06
1.00057e-06
1.0024e-06
1.00316e-06
1.00215e-06
1.00057e-06
1.00057e-06
1.00057e-06
1.00057e-06
1.00057e-06
1.00057e-06
1.00057e-06
1.00057e-06
1.00057e-06
1.00241e-06
1.00316e-06
1.00296e-06
1.00198e-06
1.00057e-06
1.00057e-06
1.00057e-06
1.00057e-06
1.00057e-06
1.00057e-06
1.00057e-06
1.00219e-06
1.00242e-06
1.00314e-06
1.00299e-06
1.00229e-06
1.00195e-06
1.00057e-06
1.00057e-06
1.00057e-06
1.00057e-06
1.00057e-06
1.00216e-06
1.00233e-06
1.00247e-06
1.00298e-06
1.00229e-06
1.00198e-06
1.00057e-06
1.00057e-06
1.00057e-06
1.00219e-06
1.00233e-06
1.00244e-06
1.00312e-06
1.00298e-06
1.00237e-06
1.00242e-06
1.0024e-06
1.00241e-06
1.00242e-06
1.00247e-06
1.00312e-06
1.00301e-06
1.00315e-06
1.00316e-06
1.00316e-06
1.00314e-06
9.93661e-07
9.92868e-07
9.92803e-07
9.92851e-07
9.93659e-07
9.93693e-07
9.93683e-07
9.9298e-07
9.9253e-07
9.91276e-07
9.91276e-07
9.91276e-07
9.9268e-07
9.92993e-07
9.93679e-07
9.9298e-07
9.92495e-07
9.91276e-07
9.91278e-07
9.91277e-07
9.91278e-07
9.91276e-07
9.92657e-07
9.92991e-07
9.93682e-07
9.93661e-07
9.9253e-07
9.91276e-07
9.91277e-07
9.91277e-07
9.91277e-07
9.91277e-07
9.91277e-07
9.91276e-07
9.92682e-07
9.93076e-07
9.93711e-07
9.92868e-07
9.91276e-07
9.91278e-07
9.91277e-07
9.91277e-07
9.91277e-07
9.91277e-07
9.91277e-07
9.91278e-07
9.91276e-07
9.9312e-07
9.9385e-07
9.92803e-07
9.91276e-07
9.91277e-07
9.91277e-07
9.91277e-07
9.91278e-07
9.91277e-07
9.91277e-07
9.91277e-07
9.91276e-07
9.93108e-07
9.93862e-07
9.92851e-07
9.91276e-07
9.91278e-07
9.91277e-07
9.91278e-07
9.91277e-07
9.91278e-07
9.91277e-07
9.91278e-07
9.91276e-07
9.93113e-07
9.93863e-07
9.93659e-07
9.9268e-07
9.91276e-07
9.91277e-07
9.91277e-07
9.91277e-07
9.91277e-07
9.91277e-07
9.91276e-07
9.92893e-07
9.93119e-07
9.93845e-07
9.93692e-07
9.92993e-07
9.92657e-07
9.91276e-07
9.91278e-07
9.91277e-07
9.91278e-07
9.91276e-07
9.92859e-07
9.93038e-07
9.9317e-07
9.93679e-07
9.92991e-07
9.92682e-07
9.91276e-07
9.91276e-07
9.91276e-07
9.92893e-07
9.93038e-07
9.93146e-07
9.93828e-07
9.93682e-07
9.93076e-07
9.9312e-07
9.93108e-07
9.93113e-07
9.93119e-07
9.9317e-07
9.93828e-07
9.93711e-07
9.9385e-07
9.93862e-07
9.93863e-07
9.93845e-07
9.84364e-07
9.83571e-07
9.83506e-07
9.83554e-07
9.84362e-07
9.84396e-07
9.84387e-07
9.83684e-07
9.83234e-07
9.81979e-07
9.8198e-07
9.81979e-07
9.83383e-07
9.83697e-07
9.84382e-07
9.83684e-07
9.83198e-07
9.81979e-07
9.81981e-07
9.8198e-07
9.81981e-07
9.81979e-07
9.8336e-07
9.83694e-07
9.84385e-07
9.84364e-07
9.83234e-07
9.81979e-07
9.8198e-07
9.8198e-07
9.8198e-07
9.8198e-07
9.8198e-07
9.81979e-07
9.83385e-07
9.83779e-07
9.84414e-07
9.83571e-07
9.81979e-07
9.81981e-07
9.8198e-07
9.81981e-07
9.8198e-07
9.81981e-07
9.8198e-07
9.81981e-07
9.81979e-07
9.83824e-07
9.84554e-07
9.83506e-07
9.8198e-07
9.8198e-07
9.8198e-07
9.8198e-07
9.8198e-07
9.8198e-07
9.8198e-07
9.8198e-07
9.8198e-07
9.83811e-07
9.84566e-07
9.83554e-07
9.81979e-07
9.81981e-07
9.8198e-07
9.81981e-07
9.8198e-07
9.81981e-07
9.8198e-07
9.81981e-07
9.81979e-07
9.83816e-07
9.84566e-07
9.84362e-07
9.83383e-07
9.81979e-07
9.8198e-07
9.8198e-07
9.8198e-07
9.8198e-07
9.8198e-07
9.81979e-07
9.83596e-07
9.83823e-07
9.84548e-07
9.84396e-07
9.83696e-07
9.8336e-07
9.81979e-07
9.81981e-07
9.8198e-07
9.81981e-07
9.81979e-07
9.83563e-07
9.83741e-07
9.83874e-07
9.84382e-07
9.83694e-07
9.83385e-07
9.81979e-07
9.8198e-07
9.81979e-07
9.83596e-07
9.83741e-07
9.83849e-07
9.84531e-07
9.84385e-07
9.83779e-07
9.83824e-07
9.83811e-07
9.83816e-07
9.83823e-07
9.83874e-07
9.84531e-07
9.84414e-07
9.84554e-07
9.84566e-07
9.84566e-07
9.84548e-07
9.75068e-07
9.74274e-07
9.74209e-07
9.74258e-07
9.75065e-07
9.75099e-07
9.7509e-07
9.74387e-07
9.73937e-07
9.72682e-07
9.72683e-07
9.72682e-07
9.74087e-07
9.744e-07
9.75085e-07
9.74387e-07
9.73901e-07
9.72683e-07
9.72684e-07
9.72683e-07
9.72684e-07
9.72683e-07
9.74064e-07
9.74397e-07
9.75089e-07
9.75068e-07
9.73937e-07
9.72683e-07
9.72683e-07
9.72683e-07
9.72683e-07
9.72683e-07
9.72683e-07
9.72683e-07
9.74088e-07
9.74482e-07
9.75117e-07
9.74274e-07
9.72682e-07
9.72684e-07
9.72683e-07
9.72684e-07
9.72683e-07
9.72684e-07
9.72683e-07
9.72684e-07
9.72682e-07
9.74527e-07
9.75257e-07
9.74209e-07
9.72683e-07
9.72683e-07
9.72683e-07
9.72683e-07
9.72683e-07
9.72683e-07
9.72683e-07
9.72683e-07
9.72683e-07
9.74515e-07
9.75269e-07
9.74258e-07
9.72682e-07
9.72684e-07
9.72683e-07
9.72684e-07
9.72683e-07
9.72684e-07
9.72683e-07
9.72684e-07
9.72682e-07
9.74519e-07
9.75269e-07
9.75066e-07
9.74087e-07
9.72683e-07
9.72683e-07
9.72683e-07
9.72683e-07
9.72683e-07
9.72683e-07
9.72683e-07
9.74299e-07
9.74526e-07
9.75252e-07
9.75099e-07
9.744e-07
9.74064e-07
9.72683e-07
9.72684e-07
9.72683e-07
9.72684e-07
9.72683e-07
9.74266e-07
9.74444e-07
9.74577e-07
9.75085e-07
9.74397e-07
9.74088e-07
9.72682e-07
9.72683e-07
9.72682e-07
9.74299e-07
9.74444e-07
9.74553e-07
9.75235e-07
9.75089e-07
9.74482e-07
9.74527e-07
9.74515e-07
9.74519e-07
9.74526e-07
9.74577e-07
9.75235e-07
9.75117e-07
9.75257e-07
9.75269e-07
9.7527e-07
9.75252e-07
9.65771e-07
9.64978e-07
9.64913e-07
9.64961e-07
9.65769e-07
9.65802e-07
9.65793e-07
9.6509e-07
9.6464e-07
9.63386e-07
9.63386e-07
9.63386e-07
9.6479e-07
9.65103e-07
9.65789e-07
9.6509e-07
9.64605e-07
9.63386e-07
9.63387e-07
9.63386e-07
9.63387e-07
9.63386e-07
9.64767e-07
9.65101e-07
9.65792e-07
9.65771e-07
9.6464e-07
9.63386e-07
9.63387e-07
9.63386e-07
9.63386e-07
9.63386e-07
9.63387e-07
9.63386e-07
9.64792e-07
9.65186e-07
9.65821e-07
9.64978e-07
9.63386e-07
9.63387e-07
9.63386e-07
9.63387e-07
9.63386e-07
9.63387e-07
9.63386e-07
9.63387e-07
9.63386e-07
9.6523e-07
9.6596e-07
9.64913e-07
9.63386e-07
9.63386e-07
9.63386e-07
9.63386e-07
9.63386e-07
9.63386e-07
9.63386e-07
9.63386e-07
9.63386e-07
9.65218e-07
9.65972e-07
9.64961e-07
9.63386e-07
9.63387e-07
9.63386e-07
9.63387e-07
9.63386e-07
9.63387e-07
9.63386e-07
9.63387e-07
9.63386e-07
9.65223e-07
9.65973e-07
9.65769e-07
9.6479e-07
9.63386e-07
9.63387e-07
9.63386e-07
9.63386e-07
9.63386e-07
9.63387e-07
9.63386e-07
9.65003e-07
9.65229e-07
9.65955e-07
9.65802e-07
9.65103e-07
9.64767e-07
9.63386e-07
9.63387e-07
9.63386e-07
9.63387e-07
9.63386e-07
9.64969e-07
9.65148e-07
9.6528e-07
9.65789e-07
9.65101e-07
9.64792e-07
9.63386e-07
9.63386e-07
9.63386e-07
9.65003e-07
9.65148e-07
9.65256e-07
9.65938e-07
9.65792e-07
9.65186e-07
9.6523e-07
9.65218e-07
9.65223e-07
9.65229e-07
9.6528e-07
9.65938e-07
9.65821e-07
9.6596e-07
9.65972e-07
9.65973e-07
9.65955e-07
9.56474e-07
9.55681e-07
9.55616e-07
9.55664e-07
9.56472e-07
9.56506e-07
9.56496e-07
9.55794e-07
9.55344e-07
9.54089e-07
9.54089e-07
9.54089e-07
9.55493e-07
9.55806e-07
9.56492e-07
9.55794e-07
9.55308e-07
9.54089e-07
9.54091e-07
9.5409e-07
9.54091e-07
9.54089e-07
9.5547e-07
9.55804e-07
9.56495e-07
9.56474e-07
9.55344e-07
9.54089e-07
9.5409e-07
9.54089e-07
9.5409e-07
9.54089e-07
9.5409e-07
9.54089e-07
9.55495e-07
9.55889e-07
9.56524e-07
9.55681e-07
9.54089e-07
9.54091e-07
9.54089e-07
9.5409e-07
9.5409e-07
9.5409e-07
9.54089e-07
9.54091e-07
9.54089e-07
9.55934e-07
9.56663e-07
9.55616e-07
9.5409e-07
9.5409e-07
9.5409e-07
9.54089e-07
9.5409e-07
9.54089e-07
9.5409e-07
9.5409e-07
9.5409e-07
9.55921e-07
9.56675e-07
9.55664e-07
9.54089e-07
9.54091e-07
9.54089e-07
9.5409e-07
9.5409e-07
9.5409e-07
9.54089e-07
9.54091e-07
9.54089e-07
9.55926e-07
9.56676e-07
9.56472e-07
9.55493e-07
9.54089e-07
9.5409e-07
9.54089e-07
9.5409e-07
9.54089e-07
9.5409e-07
9.54089e-07
9.55706e-07
9.55933e-07
9.56658e-07
9.56506e-07
9.55806e-07
9.5547e-07
9.54089e-07
9.54091e-07
9.5409e-07
9.54091e-07
9.54089e-07
9.55673e-07
9.55851e-07
9.55984e-07
9.56492e-07
9.55804e-07
9.55495e-07
9.54089e-07
9.5409e-07
9.54089e-07
9.55706e-07
9.55851e-07
9.55959e-07
9.56641e-07
9.56495e-07
9.55889e-07
9.55934e-07
9.55921e-07
9.55926e-07
9.55933e-07
9.55984e-07
9.56641e-07
9.56524e-07
9.56663e-07
9.56675e-07
9.56676e-07
9.56658e-07
9.47177e-07
9.46384e-07
9.46319e-07
9.46368e-07
9.47175e-07
9.47209e-07
9.472e-07
9.46497e-07
9.46047e-07
9.44792e-07
9.44793e-07
9.44792e-07
9.46197e-07
9.4651e-07
9.47195e-07
9.46497e-07
9.46011e-07
9.44793e-07
9.44794e-07
9.44793e-07
9.44794e-07
9.44793e-07
9.46174e-07
9.46507e-07
9.47199e-07
9.47177e-07
9.46047e-07
9.44793e-07
9.44793e-07
9.44793e-07
9.44793e-07
9.44793e-07
9.44793e-07
9.44793e-07
9.46198e-07
9.46592e-07
9.47227e-07
9.46384e-07
9.44792e-07
9.44794e-07
9.44793e-07
9.44794e-07
9.44793e-07
9.44794e-07
9.44793e-07
9.44794e-07
9.44792e-07
9.46637e-07
9.47367e-07
9.46319e-07
9.44793e-07
9.44793e-07
9.44793e-07
9.44793e-07
9.44793e-07
9.44793e-07
9.44793e-07
9.44793e-07
9.44793e-07
9.46625e-07
9.47379e-07
9.46368e-07
9.44792e-07
9.44794e-07
9.44793e-07
9.44794e-07
9.44793e-07
9.44794e-07
9.44793e-07
9.44794e-07
9.44792e-07
9.46629e-07
9.47379e-07
9.47175e-07
9.46197e-07
9.44793e-07
9.44793e-07
9.44793e-07
9.44793e-07
9.44793e-07
9.44793e-07
9.44793e-07
9.46409e-07
9.46636e-07
9.47362e-07
9.47209e-07
9.4651e-07
9.46174e-07
9.44793e-07
9.44794e-07
9.44793e-07
9.44794e-07
9.44793e-07
9.46376e-07
9.46554e-07
9.46687e-07
9.47195e-07
9.46507e-07
9.46198e-07
9.44792e-07
9.44793e-07
9.44792e-07
9.46409e-07
9.46554e-07
9.46662e-07
9.47345e-07
9.47199e-07
9.46592e-07
9.46637e-07
9.46625e-07
9.46629e-07
9.46636e-07
9.46687e-07
9.47345e-07
9.47227e-07
9.47367e-07
9.47379e-07
9.47379e-07
9.47362e-07
9.37881e-07
9.37088e-07
9.37022e-07
9.37071e-07
9.37879e-07
9.37912e-07
9.37903e-07
9.372e-07
9.3675e-07
9.35495e-07
9.35496e-07
9.35496e-07
9.369e-07
9.37213e-07
9.37899e-07
9.372e-07
9.36715e-07
9.35496e-07
9.35497e-07
9.35496e-07
9.35497e-07
9.35496e-07
9.36877e-07
9.37211e-07
9.37902e-07
9.37881e-07
9.3675e-07
9.35496e-07
9.35496e-07
9.35496e-07
9.35496e-07
9.35496e-07
9.35497e-07
9.35496e-07
9.36902e-07
9.37296e-07
9.37931e-07
9.37087e-07
9.35495e-07
9.35497e-07
9.35496e-07
9.35497e-07
9.35496e-07
9.35497e-07
9.35496e-07
9.35497e-07
9.35496e-07
9.3734e-07
9.3807e-07
9.37022e-07
9.35496e-07
9.35496e-07
9.35496e-07
9.35496e-07
9.35496e-07
9.35496e-07
9.35496e-07
9.35496e-07
9.35496e-07
9.37328e-07
9.38082e-07
9.37071e-07
9.35495e-07
9.35497e-07
9.35496e-07
9.35497e-07
9.35496e-07
9.35497e-07
9.35496e-07
9.35497e-07
9.35496e-07
9.37333e-07
9.38083e-07
9.37879e-07
9.369e-07
9.35496e-07
9.35496e-07
9.35496e-07
9.35496e-07
9.35496e-07
9.35497e-07
9.35496e-07
9.37113e-07
9.37339e-07
9.38065e-07
9.37912e-07
9.37213e-07
9.36877e-07
9.35496e-07
9.35497e-07
9.35496e-07
9.35497e-07
9.35496e-07
9.37079e-07
9.37258e-07
9.3739e-07
9.37898e-07
9.37211e-07
9.36902e-07
9.35495e-07
9.35496e-07
9.35495e-07
9.37113e-07
9.37258e-07
9.37366e-07
9.38048e-07
9.37902e-07
9.37296e-07
9.3734e-07
9.37328e-07
9.37333e-07
9.37339e-07
9.3739e-07
9.38048e-07
9.37931e-07
9.3807e-07
9.38082e-07
9.38083e-07
9.38065e-07
9.28584e-07
9.27791e-07
9.27726e-07
9.27774e-07
9.28582e-07
9.28616e-07
9.28606e-07
9.27903e-07
9.27453e-07
9.26199e-07
9.26199e-07
9.26199e-07
9.27603e-07
9.27916e-07
9.28602e-07
9.27904e-07
9.27418e-07
9.26199e-07
9.262e-07
9.262e-07
9.262e-07
9.26199e-07
9.2758e-07
9.27914e-07
9.28605e-07
9.28584e-07
9.27453e-07
9.26199e-07
9.262e-07
9.26199e-07
9.262e-07
9.26199e-07
9.262e-07
9.26199e-07
9.27605e-07
9.27999e-07
9.28634e-07
9.27791e-07
9.26199e-07
9.262e-07
9.26199e-07
9.262e-07
9.26199e-07
9.262e-07
9.26199e-07
9.262e-07
9.26199e-07
9.28044e-07
9.28773e-07
9.27726e-07
9.26199e-07
9.26199e-07
9.262e-07
9.26199e-07
9.262e-07
9.26199e-07
9.262e-07
9.262e-07
9.26199e-07
9.28031e-07
9.28785e-07
9.27774e-07
9.26199e-07
9.262e-07
9.26199e-07
9.262e-07
9.26199e-07
9.262e-07
9.26199e-07
9.262e-07
9.26199e-07
9.28036e-07
9.28786e-07
9.28582e-07
9.27603e-07
9.26199e-07
9.262e-07
9.26199e-07
9.262e-07
9.26199e-07
9.262e-07
9.26199e-07
9.27816e-07
9.28042e-07
9.28768e-07
9.28616e-07
9.27916e-07
9.2758e-07
9.26199e-07
9.262e-07
9.26199e-07
9.262e-07
9.26199e-07
9.27782e-07
9.27961e-07
9.28093e-07
9.28602e-07
9.27914e-07
9.27605e-07
9.26199e-07
9.26199e-07
9.26199e-07
9.27816e-07
9.27961e-07
9.28069e-07
9.28751e-07
9.28605e-07
9.27999e-07
9.28043e-07
9.28031e-07
9.28036e-07
9.28042e-07
9.28093e-07
9.28751e-07
9.28634e-07
9.28773e-07
9.28785e-07
9.28786e-07
9.28768e-07
9.19287e-07
9.18494e-07
9.18429e-07
9.18477e-07
9.19285e-07
9.19319e-07
9.1931e-07
9.18607e-07
9.18157e-07
9.16902e-07
9.16903e-07
9.16902e-07
9.18306e-07
9.1862e-07
9.19305e-07
9.18607e-07
9.18121e-07
9.16902e-07
9.16904e-07
9.16903e-07
9.16904e-07
9.16902e-07
9.18283e-07
9.18617e-07
9.19308e-07
9.19287e-07
9.18157e-07
9.16902e-07
9.16903e-07
9.16902e-07
9.16903e-07
9.16902e-07
9.16903e-07
9.16902e-07
9.18308e-07
9.18702e-07
9.19337e-07
9.18494e-07
9.16902e-07
9.16904e-07
9.16902e-07
9.16904e-07
9.16903e-07
9.16904e-07
9.16902e-07
9.16904e-07
9.16902e-07
9.18747e-07
9.19477e-07
9.18429e-07
9.16903e-07
9.16903e-07
9.16903e-07
9.16903e-07
9.16903e-07
9.16903e-07
9.16903e-07
9.16903e-07
9.16903e-07
9.18734e-07
9.19489e-07
9.18477e-07
9.16902e-07
9.16904e-07
9.16902e-07
9.16904e-07
9.16903e-07
9.16904e-07