/*--------------------------------*- C++ -*----------------------------------*\
| =========                 |                                                 |
| \\      /  F ield         | OpenFOAM: The Open Source CFD Toolbox           |
|  \\    /   O peration     | Version:  v2012                                 |
|   \\  /    A nd           | Website:  www.openfoam.com                      |
|    \\/     M anipulation  |                                                 |
\*---------------------------------------------------------------------------*/
FoamFile
{
    version     2.0;
    format      ascii;
    class       volScalarField;
    location    "47";
    object      p;
}
// * * * * * * * * * * * * * * * * * * * * * * * * * * * * * * * * * * * * * //

dimensions      [0 2 -2 0 0 0 0];


internalField   nonuniform List<scalar> 
292667
(
1.22308e-06
1.21355e-06
1.21277e-06
1.21284e-06
1.21391e-06
1.224e-06
1.21376e-06
1.21105e-06
1.20946e-06
1.20881e-06
1.2089e-06
1.20974e-06
1.21157e-06
1.21454e-06
1.21376e-06
1.21025e-06
1.20807e-06
1.20687e-06
1.20636e-06
1.20643e-06
1.20708e-06
1.20848e-06
1.21095e-06
1.21476e-06
1.22308e-06
1.21104e-06
1.20807e-06
1.2063e-06
1.20532e-06
1.20489e-06
1.20495e-06
1.2055e-06
1.20665e-06
1.20865e-06
1.21199e-06
1.22276e-06
1.21355e-06
1.20946e-06
1.20687e-06
1.20532e-06
1.20443e-06
1.20405e-06
1.20411e-06
1.2046e-06
1.20562e-06
1.20739e-06
1.21033e-06
1.21727e-06
1.21277e-06
1.20881e-06
1.20636e-06
1.20489e-06
1.20405e-06
1.20369e-06
1.20374e-06
1.20421e-06
1.20519e-06
1.20686e-06
1.20965e-06
1.21558e-06
1.21284e-06
1.2089e-06
1.20643e-06
1.20495e-06
1.20411e-06
1.20374e-06
1.20379e-06
1.20427e-06
1.20525e-06
1.20694e-06
1.20975e-06
1.2159e-06
1.21391e-06
1.20974e-06
1.20708e-06
1.2055e-06
1.2046e-06
1.20421e-06
1.20427e-06
1.20477e-06
1.20582e-06
1.20763e-06
1.21066e-06
1.21759e-06
1.224e-06
1.21157e-06
1.20848e-06
1.20665e-06
1.20562e-06
1.20519e-06
1.20525e-06
1.20582e-06
1.20702e-06
1.20912e-06
1.21258e-06
1.22268e-06
1.21453e-06
1.21095e-06
1.20865e-06
1.20739e-06
1.20686e-06
1.20694e-06
1.20763e-06
1.20912e-06
1.21172e-06
1.21821e-06
1.21476e-06
1.21199e-06
1.21033e-06
1.20965e-06
1.20975e-06
1.21066e-06
1.21258e-06
1.21821e-06
1.22276e-06
1.21727e-06
1.21558e-06
1.2159e-06
1.21759e-06
1.22268e-06
1.19611e-06
1.19522e-06
1.19519e-06
1.19522e-06
1.19608e-06
1.19598e-06
1.19617e-06
1.19546e-06
1.19507e-06
1.19363e-06
1.19361e-06
1.19363e-06
1.19523e-06
1.19549e-06
1.19618e-06
1.19546e-06
1.19507e-06
1.19368e-06
1.19361e-06
1.19367e-06
1.19361e-06
1.19368e-06
1.1952e-06
1.19547e-06
1.19615e-06
1.19611e-06
1.19507e-06
1.19368e-06
1.19361e-06
1.19365e-06
1.19364e-06
1.19365e-06
1.19361e-06
1.19368e-06
1.19519e-06
1.19549e-06
1.19622e-06
1.19522e-06
1.19363e-06
1.19361e-06
1.19365e-06
1.19361e-06
1.19361e-06
1.19361e-06
1.19365e-06
1.19361e-06
1.19363e-06
1.19562e-06
1.19634e-06
1.19519e-06
1.19361e-06
1.19367e-06
1.19364e-06
1.19361e-06
1.19361e-06
1.19361e-06
1.19364e-06
1.19367e-06
1.19361e-06
1.19563e-06
1.19623e-06
1.19522e-06
1.19363e-06
1.19361e-06
1.19365e-06
1.19361e-06
1.19361e-06
1.19361e-06
1.19365e-06
1.19361e-06
1.19363e-06
1.19564e-06
1.19626e-06
1.19608e-06
1.19523e-06
1.19368e-06
1.19361e-06
1.19365e-06
1.19364e-06
1.19365e-06
1.19361e-06
1.19368e-06
1.19536e-06
1.19554e-06
1.19631e-06
1.19598e-06
1.19549e-06
1.1952e-06
1.19368e-06
1.19361e-06
1.19367e-06
1.19361e-06
1.19368e-06
1.19533e-06
1.1955e-06
1.19553e-06
1.19618e-06
1.19547e-06
1.19519e-06
1.19363e-06
1.19361e-06
1.19363e-06
1.19536e-06
1.1955e-06
1.19559e-06
1.19629e-06
1.19615e-06
1.19549e-06
1.19562e-06
1.19563e-06
1.19564e-06
1.19554e-06
1.19553e-06
1.19629e-06
1.19622e-06
1.19634e-06
1.19623e-06
1.19626e-06
1.19631e-06
1.18593e-06
1.18503e-06
1.18497e-06
1.18502e-06
1.18591e-06
1.18596e-06
1.18597e-06
1.18517e-06
1.18472e-06
1.18331e-06
1.18331e-06
1.18331e-06
1.18488e-06
1.1852e-06
1.18594e-06
1.18517e-06
1.18471e-06
1.18336e-06
1.18336e-06
1.1834e-06
1.18336e-06
1.18336e-06
1.18488e-06
1.18519e-06
1.18594e-06
1.18593e-06
1.18472e-06
1.18336e-06
1.18337e-06
1.18343e-06
1.18343e-06
1.18343e-06
1.18337e-06
1.18336e-06
1.18488e-06
1.18525e-06
1.18599e-06
1.18503e-06
1.18331e-06
1.18336e-06
1.18343e-06
1.18344e-06
1.18346e-06
1.18344e-06
1.18343e-06
1.18336e-06
1.18331e-06
1.18529e-06
1.18611e-06
1.18497e-06
1.18331e-06
1.1834e-06
1.18343e-06
1.18346e-06
1.18347e-06
1.18346e-06
1.18343e-06
1.1834e-06
1.18331e-06
1.18529e-06
1.18612e-06
1.18502e-06
1.18331e-06
1.18336e-06
1.18343e-06
1.18344e-06
1.18346e-06
1.18344e-06
1.18343e-06
1.18336e-06
1.18331e-06
1.18529e-06
1.18612e-06
1.18591e-06
1.18488e-06
1.18336e-06
1.18337e-06
1.18343e-06
1.18343e-06
1.18343e-06
1.18337e-06
1.18336e-06
1.18507e-06
1.18528e-06
1.18611e-06
1.18596e-06
1.1852e-06
1.18488e-06
1.18336e-06
1.18336e-06
1.1834e-06
1.18336e-06
1.18336e-06
1.18505e-06
1.18522e-06
1.18532e-06
1.18594e-06
1.18519e-06
1.18488e-06
1.18331e-06
1.18331e-06
1.18331e-06
1.18507e-06
1.18522e-06
1.18531e-06
1.18609e-06
1.18594e-06
1.18525e-06
1.18529e-06
1.18529e-06
1.18529e-06
1.18528e-06
1.18532e-06
1.18609e-06
1.18599e-06
1.18611e-06
1.18612e-06
1.18612e-06
1.18611e-06
1.1758e-06
1.17489e-06
1.17482e-06
1.17487e-06
1.17577e-06
1.17583e-06
1.17583e-06
1.17502e-06
1.17454e-06
1.17312e-06
1.17312e-06
1.17312e-06
1.17469e-06
1.17503e-06
1.1758e-06
1.17502e-06
1.17452e-06
1.17314e-06
1.17315e-06
1.17318e-06
1.17315e-06
1.17314e-06
1.17468e-06
1.17503e-06
1.1758e-06
1.1758e-06
1.17455e-06
1.17314e-06
1.17317e-06
1.1732e-06
1.17321e-06
1.1732e-06
1.17317e-06
1.17314e-06
1.1747e-06
1.1751e-06
1.17585e-06
1.17489e-06
1.17312e-06
1.17315e-06
1.1732e-06
1.17322e-06
1.17324e-06
1.17322e-06
1.1732e-06
1.17315e-06
1.17312e-06
1.17513e-06
1.17597e-06
1.17482e-06
1.17312e-06
1.17318e-06
1.17321e-06
1.17324e-06
1.17324e-06
1.17324e-06
1.17321e-06
1.17318e-06
1.17312e-06
1.17512e-06
1.17598e-06
1.17487e-06
1.17312e-06
1.17315e-06
1.1732e-06
1.17322e-06
1.17324e-06
1.17322e-06
1.1732e-06
1.17315e-06
1.17312e-06
1.17512e-06
1.17598e-06
1.17577e-06
1.17469e-06
1.17314e-06
1.17317e-06
1.1732e-06
1.17321e-06
1.1732e-06
1.17317e-06
1.17314e-06
1.17489e-06
1.17513e-06
1.17598e-06
1.17583e-06
1.17503e-06
1.17468e-06
1.17314e-06
1.17315e-06
1.17318e-06
1.17316e-06
1.17314e-06
1.17487e-06
1.17506e-06
1.17519e-06
1.1758e-06
1.17503e-06
1.1747e-06
1.17312e-06
1.17312e-06
1.17312e-06
1.17489e-06
1.17506e-06
1.17517e-06
1.17596e-06
1.1758e-06
1.1751e-06
1.17513e-06
1.17512e-06
1.17512e-06
1.17513e-06
1.17519e-06
1.17596e-06
1.17585e-06
1.17597e-06
1.17598e-06
1.17598e-06
1.17598e-06
1.16566e-06
1.16474e-06
1.16467e-06
1.16472e-06
1.16563e-06
1.16569e-06
1.16569e-06
1.16487e-06
1.16439e-06
1.16295e-06
1.16296e-06
1.16295e-06
1.16454e-06
1.16488e-06
1.16566e-06
1.16487e-06
1.16436e-06
1.16297e-06
1.16298e-06
1.16299e-06
1.16298e-06
1.16297e-06
1.16452e-06
1.16488e-06
1.16566e-06
1.16566e-06
1.16439e-06
1.16297e-06
1.16298e-06
1.16301e-06
1.16301e-06
1.16301e-06
1.16298e-06
1.16297e-06
1.16454e-06
1.16496e-06
1.16571e-06
1.16474e-06
1.16295e-06
1.16298e-06
1.16301e-06
1.16302e-06
1.16303e-06
1.16302e-06
1.16301e-06
1.16298e-06
1.16295e-06
1.16498e-06
1.16584e-06
1.16467e-06
1.16296e-06
1.16299e-06
1.16301e-06
1.16303e-06
1.16303e-06
1.16303e-06
1.16301e-06
1.16299e-06
1.16296e-06
1.16497e-06
1.16584e-06
1.16472e-06
1.16295e-06
1.16298e-06
1.16301e-06
1.16302e-06
1.16303e-06
1.16302e-06
1.16301e-06
1.16298e-06
1.16295e-06
1.16498e-06
1.16584e-06
1.16563e-06
1.16454e-06
1.16297e-06
1.16299e-06
1.16301e-06
1.16301e-06
1.16301e-06
1.16299e-06
1.16297e-06
1.16474e-06
1.16499e-06
1.16584e-06
1.16569e-06
1.16488e-06
1.16452e-06
1.16297e-06
1.16298e-06
1.16299e-06
1.16298e-06
1.16297e-06
1.16471e-06
1.16491e-06
1.16505e-06
1.16566e-06
1.16488e-06
1.16454e-06
1.16295e-06
1.16296e-06
1.16295e-06
1.16474e-06
1.16491e-06
1.16503e-06
1.16582e-06
1.16566e-06
1.16496e-06
1.16498e-06
1.16497e-06
1.16498e-06
1.16499e-06
1.16505e-06
1.16582e-06
1.16571e-06
1.16584e-06
1.16584e-06
1.16584e-06
1.16584e-06
1.15552e-06
1.1546e-06
1.15453e-06
1.15458e-06
1.15549e-06
1.15555e-06
1.15555e-06
1.15473e-06
1.15425e-06
1.1528e-06
1.1528e-06
1.1528e-06
1.15439e-06
1.15473e-06
1.15552e-06
1.15473e-06
1.15421e-06
1.15281e-06
1.15282e-06
1.15282e-06
1.15282e-06
1.15281e-06
1.15437e-06
1.15473e-06
1.15552e-06
1.15552e-06
1.15425e-06
1.15281e-06
1.15282e-06
1.15283e-06
1.15283e-06
1.15283e-06
1.15282e-06
1.15281e-06
1.15439e-06
1.15481e-06
1.15557e-06
1.1546e-06
1.1528e-06
1.15282e-06
1.15283e-06
1.15284e-06
1.15285e-06
1.15284e-06
1.15283e-06
1.15282e-06
1.1528e-06
1.15484e-06
1.15569e-06
1.15453e-06
1.1528e-06
1.15282e-06
1.15283e-06
1.15285e-06
1.15285e-06
1.15285e-06
1.15283e-06
1.15282e-06
1.1528e-06
1.15482e-06
1.1557e-06
1.15458e-06
1.1528e-06
1.15282e-06
1.15283e-06
1.15284e-06
1.15285e-06
1.15284e-06
1.15283e-06
1.15282e-06
1.1528e-06
1.15483e-06
1.1557e-06
1.15549e-06
1.15439e-06
1.15281e-06
1.15282e-06
1.15283e-06
1.15283e-06
1.15283e-06
1.15282e-06
1.15281e-06
1.15459e-06
1.15485e-06
1.1557e-06
1.15555e-06
1.15473e-06
1.15437e-06
1.15281e-06
1.15282e-06
1.15282e-06
1.15282e-06
1.15281e-06
1.15456e-06
1.15476e-06
1.15491e-06
1.15552e-06
1.15473e-06
1.15439e-06
1.1528e-06
1.1528e-06
1.1528e-06
1.15459e-06
1.15476e-06
1.15489e-06
1.15568e-06
1.15552e-06
1.15481e-06
1.15484e-06
1.15482e-06
1.15483e-06
1.15485e-06
1.15491e-06
1.15568e-06
1.15557e-06
1.15569e-06
1.1557e-06
1.1557e-06
1.1557e-06
1.14537e-06
1.14446e-06
1.14439e-06
1.14444e-06
1.14535e-06
1.14541e-06
1.14541e-06
1.14459e-06
1.1441e-06
1.14266e-06
1.14266e-06
1.14266e-06
1.14425e-06
1.14459e-06
1.14538e-06
1.14459e-06
1.14407e-06
1.14266e-06
1.14266e-06
1.14267e-06
1.14266e-06
1.14266e-06
1.14422e-06
1.14459e-06
1.14538e-06
1.14537e-06
1.1441e-06
1.14266e-06
1.14267e-06
1.14267e-06
1.14267e-06
1.14267e-06
1.14267e-06
1.14266e-06
1.14425e-06
1.14467e-06
1.14543e-06
1.14446e-06
1.14266e-06
1.14266e-06
1.14267e-06
1.14268e-06
1.14268e-06
1.14268e-06
1.14267e-06
1.14266e-06
1.14266e-06
1.1447e-06
1.14555e-06
1.14439e-06
1.14266e-06
1.14267e-06
1.14267e-06
1.14268e-06
1.14268e-06
1.14268e-06
1.14267e-06
1.14267e-06
1.14266e-06
1.14468e-06
1.14555e-06
1.14444e-06
1.14266e-06
1.14266e-06
1.14267e-06
1.14268e-06
1.14268e-06
1.14268e-06
1.14267e-06
1.14266e-06
1.14266e-06
1.14469e-06
1.14555e-06
1.14535e-06
1.14425e-06
1.14266e-06
1.14267e-06
1.14267e-06
1.14267e-06
1.14267e-06
1.14267e-06
1.14266e-06
1.14445e-06
1.14471e-06
1.14555e-06
1.14541e-06
1.14459e-06
1.14422e-06
1.14266e-06
1.14266e-06
1.14267e-06
1.14266e-06
1.14266e-06
1.14441e-06
1.14462e-06
1.14477e-06
1.14538e-06
1.14459e-06
1.14425e-06
1.14266e-06
1.14266e-06
1.14266e-06
1.14445e-06
1.14462e-06
1.14474e-06
1.14554e-06
1.14538e-06
1.14467e-06
1.1447e-06
1.14468e-06
1.14469e-06
1.14471e-06
1.14477e-06
1.14554e-06
1.14543e-06
1.14555e-06
1.14555e-06
1.14555e-06
1.14555e-06
1.13523e-06
1.13431e-06
1.13424e-06
1.13429e-06
1.13521e-06
1.13527e-06
1.13527e-06
1.13444e-06
1.13396e-06
1.13251e-06
1.13251e-06
1.13251e-06
1.1341e-06
1.13445e-06
1.13523e-06
1.13444e-06
1.13392e-06
1.13251e-06
1.13251e-06
1.13252e-06
1.13251e-06
1.13251e-06
1.13408e-06
1.13444e-06
1.13524e-06
1.13523e-06
1.13396e-06
1.13251e-06
1.13252e-06
1.13252e-06
1.13252e-06
1.13252e-06
1.13252e-06
1.13251e-06
1.1341e-06
1.13453e-06
1.13529e-06
1.13431e-06
1.13251e-06
1.13251e-06
1.13252e-06
1.13252e-06
1.13252e-06
1.13252e-06
1.13252e-06
1.13251e-06
1.13251e-06
1.13455e-06
1.13541e-06
1.13424e-06
1.13251e-06
1.13252e-06
1.13252e-06
1.13252e-06
1.13253e-06
1.13252e-06
1.13252e-06
1.13252e-06
1.13251e-06
1.13453e-06
1.13541e-06
1.13429e-06
1.13251e-06
1.13251e-06
1.13252e-06
1.13252e-06
1.13252e-06
1.13252e-06
1.13252e-06
1.13251e-06
1.13251e-06
1.13454e-06
1.13541e-06
1.13521e-06
1.1341e-06
1.13251e-06
1.13252e-06
1.13252e-06
1.13252e-06
1.13252e-06
1.13252e-06
1.13251e-06
1.1343e-06
1.13456e-06
1.13541e-06
1.13527e-06
1.13445e-06
1.13408e-06
1.13251e-06
1.13251e-06
1.13252e-06
1.13251e-06
1.13251e-06
1.13427e-06
1.13448e-06
1.13463e-06
1.13523e-06
1.13444e-06
1.1341e-06
1.13251e-06
1.13251e-06
1.13251e-06
1.1343e-06
1.13448e-06
1.1346e-06
1.1354e-06
1.13524e-06
1.13453e-06
1.13455e-06
1.13453e-06
1.13454e-06
1.13456e-06
1.13463e-06
1.1354e-06
1.13529e-06
1.13541e-06
1.13541e-06
1.13541e-06
1.13541e-06
1.12509e-06
1.12417e-06
1.1241e-06
1.12415e-06
1.12506e-06
1.12512e-06
1.12512e-06
1.1243e-06
1.12381e-06
1.12237e-06
1.12237e-06
1.12237e-06
1.12396e-06
1.1243e-06
1.12509e-06
1.1243e-06
1.12378e-06
1.12237e-06
1.12237e-06
1.12237e-06
1.12237e-06
1.12237e-06
1.12393e-06
1.1243e-06
1.1251e-06
1.12509e-06
1.12381e-06
1.12237e-06
1.12237e-06
1.12237e-06
1.12237e-06
1.12237e-06
1.12237e-06
1.12237e-06
1.12396e-06
1.12438e-06
1.12514e-06
1.12417e-06
1.12237e-06
1.12237e-06
1.12237e-06
1.12237e-06
1.12237e-06
1.12237e-06
1.12237e-06
1.12237e-06
1.12237e-06
1.12441e-06
1.12527e-06
1.1241e-06
1.12237e-06
1.12237e-06
1.12237e-06
1.12237e-06
1.12237e-06
1.12237e-06
1.12237e-06
1.12237e-06
1.12237e-06
1.12439e-06
1.12527e-06
1.12415e-06
1.12237e-06
1.12237e-06
1.12237e-06
1.12237e-06
1.12237e-06
1.12237e-06
1.12237e-06
1.12237e-06
1.12237e-06
1.1244e-06
1.12527e-06
1.12506e-06
1.12396e-06
1.12237e-06
1.12237e-06
1.12237e-06
1.12237e-06
1.12237e-06
1.12237e-06
1.12237e-06
1.12416e-06
1.12442e-06
1.12527e-06
1.12512e-06
1.1243e-06
1.12393e-06
1.12237e-06
1.12237e-06
1.12237e-06
1.12237e-06
1.12237e-06
1.12412e-06
1.12433e-06
1.12448e-06
1.12509e-06
1.1243e-06
1.12396e-06
1.12237e-06
1.12237e-06
1.12237e-06
1.12416e-06
1.12433e-06
1.12446e-06
1.12525e-06
1.1251e-06
1.12438e-06
1.12441e-06
1.12439e-06
1.1244e-06
1.12442e-06
1.12448e-06
1.12525e-06
1.12514e-06
1.12526e-06
1.12527e-06
1.12527e-06
1.12527e-06
1.11494e-06
1.11403e-06
1.11396e-06
1.11401e-06
1.11492e-06
1.11498e-06
1.11498e-06
1.11416e-06
1.11367e-06
1.11222e-06
1.11222e-06
1.11222e-06
1.11381e-06
1.11416e-06
1.11495e-06
1.11416e-06
1.11363e-06
1.11222e-06
1.11222e-06
1.11222e-06
1.11222e-06
1.11222e-06
1.11379e-06
1.11416e-06
1.11495e-06
1.11494e-06
1.11367e-06
1.11222e-06
1.11222e-06
1.11222e-06
1.11222e-06
1.11222e-06
1.11222e-06
1.11222e-06
1.11381e-06
1.11424e-06
1.115e-06
1.11403e-06
1.11222e-06
1.11222e-06
1.11222e-06
1.11223e-06
1.11223e-06
1.11223e-06
1.11222e-06
1.11222e-06
1.11222e-06
1.11427e-06
1.11512e-06
1.11396e-06
1.11222e-06
1.11222e-06
1.11222e-06
1.11223e-06
1.11223e-06
1.11223e-06
1.11222e-06
1.11222e-06
1.11222e-06
1.11425e-06
1.11512e-06
1.11401e-06
1.11222e-06
1.11222e-06
1.11222e-06
1.11223e-06
1.11223e-06
1.11223e-06
1.11222e-06
1.11222e-06
1.11222e-06
1.11425e-06
1.11512e-06
1.11492e-06
1.11381e-06
1.11222e-06
1.11222e-06
1.11222e-06
1.11222e-06
1.11222e-06
1.11222e-06
1.11222e-06
1.11401e-06
1.11428e-06
1.11512e-06
1.11498e-06
1.11416e-06
1.11379e-06
1.11222e-06
1.11222e-06
1.11222e-06
1.11222e-06
1.11222e-06
1.11398e-06
1.11419e-06
1.11434e-06
1.11495e-06
1.11416e-06
1.11381e-06
1.11222e-06
1.11222e-06
1.11222e-06
1.11401e-06
1.11419e-06
1.11431e-06
1.11511e-06
1.11495e-06
1.11424e-06
1.11427e-06
1.11425e-06
1.11425e-06
1.11428e-06
1.11434e-06
1.11511e-06
1.115e-06
1.11512e-06
1.11512e-06
1.11512e-06
1.11512e-06
1.1048e-06
1.10388e-06
1.10381e-06
1.10386e-06
1.10477e-06
1.10483e-06
1.10484e-06
1.10401e-06
1.10352e-06
1.10208e-06
1.10208e-06
1.10208e-06
1.10367e-06
1.10402e-06
1.1048e-06
1.10401e-06
1.10349e-06
1.10208e-06
1.10208e-06
1.10208e-06
1.10208e-06
1.10208e-06
1.10365e-06
1.10401e-06
1.10481e-06
1.1048e-06
1.10352e-06
1.10208e-06
1.10208e-06
1.10208e-06
1.10208e-06
1.10208e-06
1.10208e-06
1.10208e-06
1.10367e-06
1.1041e-06
1.10486e-06
1.10388e-06
1.10208e-06
1.10208e-06
1.10208e-06
1.10208e-06
1.10208e-06
1.10208e-06
1.10208e-06
1.10208e-06
1.10208e-06
1.10412e-06
1.10498e-06
1.10381e-06
1.10208e-06
1.10208e-06
1.10208e-06
1.10208e-06
1.10208e-06
1.10208e-06
1.10208e-06
1.10208e-06
1.10208e-06
1.1041e-06
1.10498e-06
1.10386e-06
1.10208e-06
1.10208e-06
1.10208e-06
1.10208e-06
1.10208e-06
1.10208e-06
1.10208e-06
1.10208e-06
1.10208e-06
1.10411e-06
1.10498e-06
1.10477e-06
1.10367e-06
1.10208e-06
1.10208e-06
1.10208e-06
1.10208e-06
1.10208e-06
1.10208e-06
1.10208e-06
1.10387e-06
1.10413e-06
1.10498e-06
1.10483e-06
1.10402e-06
1.10365e-06
1.10208e-06
1.10208e-06
1.10208e-06
1.10208e-06
1.10208e-06
1.10384e-06
1.10405e-06
1.10419e-06
1.1048e-06
1.10401e-06
1.10367e-06
1.10208e-06
1.10208e-06
1.10208e-06
1.10387e-06
1.10405e-06
1.10417e-06
1.10497e-06
1.10481e-06
1.1041e-06
1.10412e-06
1.1041e-06
1.10411e-06
1.10413e-06
1.10419e-06
1.10497e-06
1.10486e-06
1.10498e-06
1.10498e-06
1.10498e-06
1.10498e-06
1.09466e-06
1.09374e-06
1.09367e-06
1.09372e-06
1.09463e-06
1.09469e-06
1.09469e-06
1.09387e-06
1.09338e-06
1.09193e-06
1.09193e-06
1.09193e-06
1.09353e-06
1.09387e-06
1.09466e-06
1.09387e-06
1.09335e-06
1.09193e-06
1.09193e-06
1.09193e-06
1.09193e-06
1.09193e-06
1.0935e-06
1.09387e-06
1.09466e-06
1.09466e-06
1.09338e-06
1.09193e-06
1.09193e-06
1.09193e-06
1.09193e-06
1.09193e-06
1.09193e-06
1.09193e-06
1.09353e-06
1.09395e-06
1.09471e-06
1.09374e-06
1.09193e-06
1.09193e-06
1.09193e-06
1.09194e-06
1.09193e-06
1.09194e-06
1.09193e-06
1.09193e-06
1.09193e-06
1.09398e-06
1.09483e-06
1.09367e-06
1.09193e-06
1.09193e-06
1.09193e-06
1.09193e-06
1.09194e-06
1.09193e-06
1.09193e-06
1.09193e-06
1.09193e-06
1.09396e-06
1.09483e-06
1.09372e-06
1.09193e-06
1.09193e-06
1.09193e-06
1.09194e-06
1.09193e-06
1.09194e-06
1.09193e-06
1.09193e-06
1.09193e-06
1.09397e-06
1.09484e-06
1.09463e-06
1.09353e-06
1.09193e-06
1.09193e-06
1.09193e-06
1.09193e-06
1.09193e-06
1.09193e-06
1.09193e-06
1.09373e-06
1.09399e-06
1.09484e-06
1.09469e-06
1.09387e-06
1.0935e-06
1.09193e-06
1.09193e-06
1.09193e-06
1.09193e-06
1.09193e-06
1.09369e-06
1.0939e-06
1.09405e-06
1.09466e-06
1.09387e-06
1.09353e-06
1.09193e-06
1.09193e-06
1.09193e-06
1.09373e-06
1.0939e-06
1.09403e-06
1.09482e-06
1.09466e-06
1.09395e-06
1.09398e-06
1.09396e-06
1.09397e-06
1.09399e-06
1.09405e-06
1.09482e-06
1.09471e-06
1.09483e-06
1.09483e-06
1.09484e-06
1.09484e-06
1.08451e-06
1.08359e-06
1.08352e-06
1.08357e-06
1.08449e-06
1.08455e-06
1.08455e-06
1.08373e-06
1.08324e-06
1.08179e-06
1.08179e-06
1.08179e-06
1.08338e-06
1.08373e-06
1.08452e-06
1.08373e-06
1.0832e-06
1.08179e-06
1.08179e-06
1.08179e-06
1.08179e-06
1.08179e-06
1.08336e-06
1.08373e-06
1.08452e-06
1.08451e-06
1.08324e-06
1.08179e-06
1.08179e-06
1.08179e-06
1.08179e-06
1.08179e-06
1.08179e-06
1.08179e-06
1.08338e-06
1.08381e-06
1.08457e-06
1.08359e-06
1.08179e-06
1.08179e-06
1.08179e-06
1.08179e-06
1.08179e-06
1.08179e-06
1.08179e-06
1.08179e-06
1.08179e-06
1.08383e-06
1.08469e-06
1.08352e-06
1.08179e-06
1.08179e-06
1.08179e-06
1.08179e-06
1.08179e-06
1.08179e-06
1.08179e-06
1.08179e-06
1.08179e-06
1.08382e-06
1.08469e-06
1.08357e-06
1.08179e-06
1.08179e-06
1.08179e-06
1.08179e-06
1.08179e-06
1.08179e-06
1.08179e-06
1.08179e-06
1.08179e-06
1.08382e-06
1.08469e-06
1.08449e-06
1.08338e-06
1.08179e-06
1.08179e-06
1.08179e-06
1.08179e-06
1.08179e-06
1.08179e-06
1.08179e-06
1.08358e-06
1.08384e-06
1.08469e-06
1.08455e-06
1.08373e-06
1.08336e-06
1.08179e-06
1.08179e-06
1.08179e-06
1.08179e-06
1.08179e-06
1.08355e-06
1.08376e-06
1.08391e-06
1.08452e-06
1.08373e-06
1.08338e-06
1.08179e-06
1.08179e-06
1.08179e-06
1.08358e-06
1.08376e-06
1.08388e-06
1.08468e-06
1.08452e-06
1.08381e-06
1.08383e-06
1.08382e-06
1.08382e-06
1.08384e-06
1.08391e-06
1.08468e-06
1.08457e-06
1.08469e-06
1.08469e-06
1.08469e-06
1.08469e-06
1.07437e-06
1.07345e-06
1.07338e-06
1.07343e-06
1.07434e-06
1.0744e-06
1.0744e-06
1.07358e-06
1.07309e-06
1.07165e-06
1.07165e-06
1.07165e-06
1.07324e-06
1.07358e-06
1.07437e-06
1.07358e-06
1.07306e-06
1.07165e-06
1.07165e-06
1.07165e-06
1.07165e-06
1.07165e-06
1.07321e-06
1.07358e-06
1.07438e-06
1.07437e-06
1.07309e-06
1.07165e-06
1.07165e-06
1.07165e-06
1.07165e-06
1.07165e-06
1.07165e-06
1.07165e-06
1.07324e-06
1.07367e-06
1.07442e-06
1.07345e-06
1.07165e-06
1.07165e-06
1.07165e-06
1.07165e-06
1.07165e-06
1.07165e-06
1.07165e-06
1.07165e-06
1.07165e-06
1.07369e-06
1.07455e-06
1.07338e-06
1.07165e-06
1.07165e-06
1.07165e-06
1.07165e-06
1.07165e-06
1.07165e-06
1.07165e-06
1.07165e-06
1.07165e-06
1.07367e-06
1.07455e-06
1.07343e-06
1.07165e-06
1.07165e-06
1.07165e-06
1.07165e-06
1.07165e-06
1.07165e-06
1.07165e-06
1.07165e-06
1.07165e-06
1.07368e-06
1.07455e-06
1.07434e-06
1.07324e-06
1.07165e-06
1.07165e-06
1.07165e-06
1.07165e-06
1.07165e-06
1.07165e-06
1.07165e-06
1.07344e-06
1.0737e-06
1.07455e-06
1.0744e-06
1.07358e-06
1.07321e-06
1.07165e-06
1.07165e-06
1.07165e-06
1.07165e-06
1.07165e-06
1.0734e-06
1.07361e-06
1.07376e-06
1.07437e-06
1.07358e-06
1.07324e-06
1.07165e-06
1.07165e-06
1.07165e-06
1.07344e-06
1.07361e-06
1.07374e-06
1.07454e-06
1.07438e-06
1.07367e-06
1.07369e-06
1.07367e-06
1.07368e-06
1.0737e-06
1.07376e-06
1.07454e-06
1.07442e-06
1.07455e-06
1.07455e-06
1.07455e-06
1.07455e-06
1.06422e-06
1.06331e-06
1.06324e-06
1.06329e-06
1.0642e-06
1.06426e-06
1.06426e-06
1.06344e-06
1.06295e-06
1.0615e-06
1.0615e-06
1.0615e-06
1.06309e-06
1.06344e-06
1.06423e-06
1.06344e-06
1.06292e-06
1.0615e-06
1.0615e-06
1.0615e-06
1.0615e-06
1.0615e-06
1.06307e-06
1.06344e-06
1.06423e-06
1.06422e-06
1.06295e-06
1.0615e-06
1.0615e-06
1.0615e-06
1.0615e-06
1.0615e-06
1.0615e-06
1.0615e-06
1.0631e-06
1.06352e-06
1.06428e-06
1.06331e-06
1.0615e-06
1.0615e-06
1.0615e-06
1.0615e-06
1.0615e-06
1.0615e-06
1.0615e-06
1.0615e-06
1.0615e-06
1.06355e-06
1.0644e-06
1.06324e-06
1.0615e-06
1.0615e-06
1.0615e-06
1.0615e-06
1.0615e-06
1.0615e-06
1.0615e-06
1.0615e-06
1.0615e-06
1.06353e-06
1.0644e-06
1.06329e-06
1.0615e-06
1.0615e-06
1.0615e-06
1.0615e-06
1.0615e-06
1.0615e-06
1.0615e-06
1.0615e-06
1.0615e-06
1.06354e-06
1.0644e-06
1.0642e-06
1.06309e-06
1.0615e-06
1.0615e-06
1.0615e-06
1.0615e-06
1.0615e-06
1.0615e-06
1.0615e-06
1.0633e-06
1.06356e-06
1.06441e-06
1.06426e-06
1.06344e-06
1.06307e-06
1.0615e-06
1.0615e-06
1.0615e-06
1.0615e-06
1.0615e-06
1.06326e-06
1.06347e-06
1.06362e-06
1.06423e-06
1.06344e-06
1.0631e-06
1.0615e-06
1.0615e-06
1.0615e-06
1.0633e-06
1.06347e-06
1.06359e-06
1.06439e-06
1.06423e-06
1.06352e-06
1.06355e-06
1.06353e-06
1.06354e-06
1.06356e-06
1.06362e-06
1.06439e-06
1.06428e-06
1.0644e-06
1.0644e-06
1.0644e-06
1.06441e-06
1.05408e-06
1.05316e-06
1.05309e-06
1.05314e-06
1.05406e-06
1.05412e-06
1.05412e-06
1.05329e-06
1.05281e-06
1.05136e-06
1.05136e-06
1.05136e-06
1.05295e-06
1.0533e-06
1.05409e-06
1.05329e-06
1.05277e-06
1.05136e-06
1.05136e-06
1.05136e-06
1.05136e-06
1.05136e-06
1.05293e-06
1.05329e-06
1.05409e-06
1.05408e-06
1.05281e-06
1.05136e-06
1.05136e-06
1.05136e-06
1.05136e-06
1.05136e-06
1.05136e-06
1.05136e-06
1.05295e-06
1.05338e-06
1.05414e-06
1.05316e-06
1.05136e-06
1.05136e-06
1.05136e-06
1.05136e-06
1.05136e-06
1.05136e-06
1.05136e-06
1.05136e-06
1.05136e-06
1.0534e-06
1.05426e-06
1.05309e-06
1.05136e-06
1.05136e-06
1.05136e-06
1.05136e-06
1.05136e-06
1.05136e-06
1.05136e-06
1.05136e-06
1.05136e-06
1.05338e-06
1.05426e-06
1.05314e-06
1.05136e-06
1.05136e-06
1.05136e-06
1.05136e-06
1.05136e-06
1.05136e-06
1.05136e-06
1.05136e-06
1.05136e-06
1.05339e-06
1.05426e-06
1.05406e-06
1.05295e-06
1.05136e-06
1.05136e-06
1.05136e-06
1.05136e-06
1.05136e-06
1.05136e-06
1.05136e-06
1.05315e-06
1.05341e-06
1.05426e-06
1.05412e-06
1.0533e-06
1.05293e-06
1.05136e-06
1.05136e-06
1.05136e-06
1.05136e-06
1.05136e-06
1.05312e-06
1.05333e-06
1.05348e-06
1.05409e-06
1.05329e-06
1.05295e-06
1.05136e-06
1.05136e-06
1.05136e-06
1.05315e-06
1.05333e-06
1.05345e-06
1.05425e-06
1.05409e-06
1.05338e-06
1.0534e-06
1.05338e-06
1.05339e-06
1.05341e-06
1.05348e-06
1.05425e-06
1.05414e-06
1.05426e-06
1.05426e-06
1.05426e-06
1.05426e-06
1.04394e-06
1.04302e-06
1.04295e-06
1.043e-06
1.04391e-06
1.04397e-06
1.04397e-06
1.04315e-06
1.04266e-06
1.04121e-06
1.04121e-06
1.04121e-06
1.04281e-06
1.04315e-06
1.04394e-06
1.04315e-06
1.04263e-06
1.04121e-06
1.04122e-06
1.04121e-06
1.04122e-06
1.04121e-06
1.04278e-06
1.04315e-06
1.04395e-06
1.04394e-06
1.04266e-06
1.04121e-06
1.04121e-06
1.04121e-06
1.04121e-06
1.04121e-06
1.04121e-06
1.04121e-06
1.04281e-06
1.04323e-06
1.04399e-06
1.04302e-06
1.04121e-06
1.04122e-06
1.04121e-06
1.04122e-06
1.04121e-06
1.04122e-06
1.04121e-06
1.04122e-06
1.04121e-06
1.04326e-06
1.04411e-06
1.04295e-06
1.04121e-06
1.04121e-06
1.04121e-06
1.04121e-06
1.04121e-06
1.04121e-06
1.04121e-06
1.04121e-06
1.04121e-06
1.04324e-06
1.04412e-06
1.043e-06
1.04121e-06
1.04122e-06
1.04121e-06
1.04122e-06
1.04121e-06
1.04122e-06
1.04121e-06
1.04122e-06
1.04121e-06
1.04325e-06
1.04412e-06
1.04391e-06
1.04281e-06
1.04121e-06
1.04121e-06
1.04121e-06
1.04121e-06
1.04121e-06
1.04121e-06
1.04121e-06
1.04301e-06
1.04327e-06
1.04412e-06
1.04397e-06
1.04315e-06
1.04278e-06
1.04121e-06
1.04122e-06
1.04121e-06
1.04122e-06
1.04121e-06
1.04297e-06
1.04318e-06
1.04333e-06
1.04394e-06
1.04315e-06
1.04281e-06
1.04121e-06
1.04121e-06
1.04121e-06
1.04301e-06
1.04318e-06
1.04331e-06
1.0441e-06
1.04395e-06
1.04323e-06
1.04326e-06
1.04324e-06
1.04325e-06
1.04327e-06
1.04333e-06
1.0441e-06
1.04399e-06
1.04411e-06
1.04412e-06
1.04412e-06
1.04412e-06
1.03379e-06
1.03288e-06
1.03281e-06
1.03285e-06
1.03377e-06
1.03383e-06
1.03383e-06
1.03301e-06
1.03252e-06
1.03107e-06
1.03107e-06
1.03107e-06
1.03266e-06
1.03301e-06
1.0338e-06
1.03301e-06
1.03248e-06
1.03107e-06
1.03107e-06
1.03107e-06
1.03107e-06
1.03107e-06
1.03264e-06
1.03301e-06
1.0338e-06
1.03379e-06
1.03252e-06
1.03107e-06
1.03107e-06
1.03107e-06
1.03107e-06
1.03107e-06
1.03107e-06
1.03107e-06
1.03266e-06
1.03309e-06
1.03385e-06
1.03288e-06
1.03107e-06
1.03107e-06
1.03107e-06
1.03107e-06
1.03107e-06
1.03107e-06
1.03107e-06
1.03107e-06
1.03107e-06
1.03311e-06
1.03397e-06
1.03281e-06
1.03107e-06
1.03107e-06
1.03107e-06
1.03107e-06
1.03107e-06
1.03107e-06
1.03107e-06
1.03107e-06
1.03107e-06
1.0331e-06
1.03397e-06
1.03285e-06
1.03107e-06
1.03107e-06
1.03107e-06
1.03107e-06
1.03107e-06
1.03107e-06
1.03107e-06
1.03107e-06
1.03107e-06
1.0331e-06
1.03397e-06
1.03377e-06
1.03266e-06
1.03107e-06
1.03107e-06
1.03107e-06
1.03107e-06
1.03107e-06
1.03107e-06
1.03107e-06
1.03286e-06
1.03313e-06
1.03397e-06
1.03383e-06
1.03301e-06
1.03264e-06
1.03107e-06
1.03107e-06
1.03107e-06
1.03107e-06
1.03107e-06
1.03283e-06
1.03304e-06
1.03319e-06
1.0338e-06
1.03301e-06
1.03266e-06
1.03107e-06
1.03107e-06
1.03107e-06
1.03286e-06
1.03304e-06
1.03316e-06
1.03396e-06
1.0338e-06
1.03309e-06
1.03311e-06
1.0331e-06
1.0331e-06
1.03312e-06
1.03319e-06
1.03396e-06
1.03385e-06
1.03397e-06
1.03397e-06
1.03397e-06
1.03397e-06
1.02365e-06
1.02273e-06
1.02266e-06
1.02271e-06
1.02362e-06
1.02368e-06
1.02369e-06
1.02286e-06
1.02237e-06
1.02093e-06
1.02093e-06
1.02093e-06
1.02252e-06
1.02287e-06
1.02365e-06
1.02286e-06
1.02234e-06
1.02093e-06
1.02093e-06
1.02093e-06
1.02093e-06
1.02093e-06
1.0225e-06
1.02286e-06
1.02366e-06
1.02365e-06
1.02237e-06
1.02093e-06
1.02093e-06
1.02093e-06
1.02093e-06
1.02093e-06
1.02093e-06
1.02093e-06
1.02252e-06
1.02295e-06
1.02371e-06
1.02273e-06
1.02093e-06
1.02093e-06
1.02093e-06
1.02093e-06
1.02093e-06
1.02093e-06
1.02093e-06
1.02093e-06
1.02093e-06
1.02297e-06
1.02383e-06
1.02266e-06
1.02093e-06
1.02093e-06
1.02093e-06
1.02093e-06
1.02093e-06
1.02093e-06
1.02093e-06
1.02093e-06
1.02093e-06
1.02295e-06
1.02383e-06
1.02271e-06
1.02093e-06
1.02093e-06
1.02093e-06
1.02093e-06
1.02093e-06
1.02093e-06
1.02093e-06
1.02093e-06
1.02093e-06
1.02296e-06
1.02383e-06
1.02362e-06
1.02252e-06
1.02093e-06
1.02093e-06
1.02093e-06
1.02093e-06
1.02093e-06
1.02093e-06
1.02093e-06
1.02272e-06
1.02298e-06
1.02383e-06
1.02368e-06
1.02287e-06
1.0225e-06
1.02093e-06
1.02093e-06
1.02093e-06
1.02093e-06
1.02093e-06
1.02269e-06
1.0229e-06
1.02304e-06
1.02365e-06
1.02286e-06
1.02252e-06
1.02093e-06
1.02093e-06
1.02093e-06
1.02272e-06
1.0229e-06
1.02302e-06
1.02382e-06
1.02366e-06
1.02295e-06
1.02297e-06
1.02295e-06
1.02296e-06
1.02298e-06
1.02304e-06
1.02382e-06
1.02371e-06
1.02383e-06
1.02383e-06
1.02383e-06
1.02383e-06
1.01351e-06
1.01259e-06
1.01252e-06
1.01257e-06
1.01348e-06
1.01354e-06
1.01354e-06
1.01272e-06
1.01223e-06
1.01078e-06
1.01078e-06
1.01078e-06
1.01238e-06
1.01272e-06
1.01351e-06
1.01272e-06
1.0122e-06
1.01078e-06
1.01078e-06
1.01078e-06
1.01078e-06
1.01078e-06
1.01235e-06
1.01272e-06
1.01351e-06
1.01351e-06
1.01223e-06
1.01078e-06
1.01078e-06
1.01078e-06
1.01078e-06
1.01078e-06
1.01078e-06
1.01078e-06
1.01238e-06
1.0128e-06
1.01356e-06
1.01259e-06
1.01078e-06
1.01078e-06
1.01078e-06
1.01078e-06
1.01078e-06
1.01078e-06
1.01078e-06
1.01078e-06
1.01078e-06
1.01283e-06
1.01368e-06
1.01252e-06
1.01078e-06
1.01078e-06
1.01078e-06
1.01078e-06
1.01078e-06
1.01078e-06
1.01078e-06
1.01078e-06
1.01078e-06
1.01281e-06
1.01368e-06
1.01257e-06
1.01078e-06
1.01078e-06
1.01078e-06
1.01078e-06
1.01078e-06
1.01078e-06
1.01078e-06
1.01078e-06
1.01078e-06
1.01282e-06
1.01369e-06
1.01348e-06
1.01238e-06
1.01078e-06
1.01078e-06
1.01078e-06
1.01078e-06
1.01078e-06
1.01078e-06
1.01078e-06
1.01258e-06
1.01284e-06
1.01369e-06
1.01354e-06
1.01272e-06
1.01235e-06
1.01078e-06
1.01078e-06
1.01078e-06
1.01078e-06
1.01078e-06
1.01254e-06
1.01275e-06
1.0129e-06
1.01351e-06
1.01272e-06
1.01238e-06
1.01078e-06
1.01078e-06
1.01078e-06
1.01258e-06
1.01275e-06
1.01288e-06
1.01367e-06
1.01351e-06
1.0128e-06
1.01283e-06
1.01281e-06
1.01282e-06
1.01284e-06
1.0129e-06
1.01367e-06
1.01356e-06
1.01368e-06
1.01368e-06
1.01369e-06
1.01369e-06
1.00336e-06
1.00244e-06
1.00237e-06
1.00242e-06
1.00334e-06
1.0034e-06
1.0034e-06
1.00258e-06
1.00209e-06
1.00064e-06
1.00064e-06
1.00064e-06
1.00223e-06
1.00258e-06
1.00337e-06
1.00258e-06
1.00205e-06
1.00064e-06
1.00064e-06
1.00064e-06
1.00064e-06
1.00064e-06
1.00221e-06
1.00258e-06
1.00337e-06
1.00336e-06
1.00209e-06
1.00064e-06
1.00064e-06
1.00064e-06
1.00064e-06
1.00064e-06
1.00064e-06
1.00064e-06
1.00223e-06
1.00266e-06
1.00342e-06
1.00244e-06
1.00064e-06
1.00064e-06
1.00064e-06
1.00064e-06
1.00064e-06
1.00064e-06
1.00064e-06
1.00064e-06
1.00064e-06
1.00268e-06
1.00354e-06
1.00237e-06
1.00064e-06
1.00064e-06
1.00064e-06
1.00064e-06
1.00064e-06
1.00064e-06
1.00064e-06
1.00064e-06
1.00064e-06
1.00267e-06
1.00354e-06
1.00242e-06
1.00064e-06
1.00064e-06