/*--------------------------------*- C++ -*----------------------------------*\
| =========                 |                                                 |
| \\      /  F ield         | OpenFOAM: The Open Source CFD Toolbox           |
|  \\    /   O peration     | Version:  v2012                                 |
|   \\  /    A nd           | Website:  www.openfoam.com                      |
|    \\/     M anipulation  |                                                 |
\*---------------------------------------------------------------------------*/
FoamFile
{
    version     2.0;
    format      ascii;
    class       volScalarField;
    location    "83";
    object      p;
}
// * * * * * * * * * * * * * * * * * * * * * * * * * * * * * * * * * * * * * //

dimensions      [0 2 -2 0 0 0 0];


internalField   nonuniform List<scalar> 
292667
(
9.98342e-07
9.89578e-07
9.88949e-07
9.89004e-07
9.89839e-07
9.99167e-07
9.89779e-07
9.87646e-07
9.86382e-07
9.8586e-07
9.85927e-07
9.86603e-07
9.88051e-07
9.9036e-07
9.89779e-07
9.87029e-07
9.85287e-07
9.8432e-07
9.83912e-07
9.83966e-07
9.84493e-07
9.85612e-07
9.87565e-07
9.905e-07
9.98342e-07
9.87646e-07
9.85287e-07
9.83869e-07
9.83075e-07
9.82734e-07
9.8278e-07
9.8322e-07
9.84142e-07
9.85748e-07
9.88376e-07
9.9774e-07
9.89577e-07
9.86382e-07
9.8432e-07
9.83075e-07
9.82368e-07
9.82062e-07
9.82104e-07
9.82501e-07
9.83322e-07
9.84735e-07
9.87061e-07
9.92792e-07
9.88949e-07
9.8586e-07
9.83912e-07
9.82734e-07
9.82062e-07
9.8177e-07
9.81811e-07
9.8219e-07
9.82972e-07
9.84311e-07
9.86519e-07
9.91324e-07
9.89003e-07
9.85927e-07
9.83966e-07
9.8278e-07
9.82104e-07
9.81811e-07
9.81852e-07
9.82234e-07
9.83021e-07
9.84371e-07
9.86597e-07
9.91615e-07
9.89838e-07
9.86603e-07
9.84492e-07
9.8322e-07
9.82501e-07
9.8219e-07
9.82234e-07
9.82639e-07
9.83479e-07
9.84929e-07
9.87319e-07
9.93071e-07
9.99167e-07
9.8805e-07
9.85612e-07
9.84142e-07
9.83322e-07
9.82972e-07
9.83021e-07
9.83479e-07
9.8444e-07
9.86118e-07
9.88837e-07
9.97572e-07
9.9036e-07
9.87565e-07
9.85747e-07
9.84735e-07
9.84311e-07
9.84371e-07
9.84929e-07
9.86118e-07
9.88177e-07
9.93738e-07
9.905e-07
9.88375e-07
9.87061e-07
9.86519e-07
9.86597e-07
9.87319e-07
9.88836e-07
9.93738e-07
9.9774e-07
9.92792e-07
9.91324e-07
9.91615e-07
9.93071e-07
9.97572e-07
9.75447e-07
9.7488e-07
9.74849e-07
9.74909e-07
9.75501e-07
9.7535e-07
9.75464e-07
9.75032e-07
9.74722e-07
9.73687e-07
9.73669e-07
9.73686e-07
9.74885e-07
9.751e-07
9.75531e-07
9.75032e-07
9.747e-07
9.73718e-07
9.7368e-07
9.73715e-07
9.73681e-07
9.73719e-07
9.74871e-07
9.75092e-07
9.7552e-07
9.75447e-07
9.74723e-07
9.73719e-07
9.73662e-07
9.73681e-07
9.7366e-07
9.73681e-07
9.73662e-07
9.73719e-07
9.74876e-07
9.75129e-07
9.75528e-07
9.74881e-07
9.73687e-07
9.73681e-07
9.73681e-07
9.7364e-07
9.73645e-07
9.7364e-07
9.73682e-07
9.73681e-07
9.73687e-07
9.75294e-07
9.75714e-07
9.74849e-07
9.7367e-07
9.73715e-07
9.7366e-07
9.73645e-07
9.73633e-07
9.73645e-07
9.7366e-07
9.73715e-07
9.7367e-07
9.75315e-07
9.75664e-07
9.74909e-07
9.73686e-07
9.73681e-07
9.73681e-07
9.7364e-07
9.73645e-07
9.7364e-07
9.73681e-07
9.7368e-07
9.73686e-07
9.75308e-07
9.75681e-07
9.75502e-07
9.74885e-07
9.73719e-07
9.73662e-07
9.73682e-07
9.7366e-07
9.73682e-07
9.73662e-07
9.73719e-07
9.75084e-07
9.75199e-07
9.7567e-07
9.7535e-07
9.751e-07
9.74871e-07
9.73719e-07
9.73681e-07
9.73715e-07
9.73681e-07
9.73719e-07
9.75052e-07
9.75167e-07
9.75155e-07
9.75531e-07
9.75092e-07
9.74876e-07
9.73687e-07
9.7367e-07
9.73686e-07
9.75084e-07
9.75167e-07
9.75186e-07
9.7562e-07
9.7552e-07
9.75129e-07
9.75294e-07
9.75315e-07
9.75308e-07
9.75199e-07
9.75155e-07
9.7562e-07
9.75528e-07
9.75714e-07
9.75664e-07
9.75681e-07
9.7567e-07
9.67146e-07
9.66512e-07
9.6646e-07
9.66505e-07
9.67174e-07
9.67177e-07
9.67152e-07
9.66604e-07
9.6624e-07
9.65251e-07
9.65249e-07
9.65251e-07
9.66398e-07
9.66644e-07
9.67177e-07
9.66604e-07
9.66215e-07
9.65287e-07
9.65294e-07
9.65323e-07
9.65294e-07
9.65287e-07
9.66394e-07
9.66644e-07
9.67178e-07
9.67147e-07
9.6624e-07
9.65287e-07
9.65307e-07
9.65345e-07
9.65341e-07
9.65345e-07
9.65307e-07
9.65287e-07
9.66407e-07
9.66712e-07
9.67187e-07
9.66512e-07
9.65251e-07
9.65294e-07
9.65346e-07
9.65351e-07
9.65371e-07
9.65351e-07
9.65346e-07
9.65294e-07
9.65251e-07
9.66794e-07
9.67347e-07
9.6646e-07
9.65249e-07
9.65323e-07
9.65341e-07
9.65371e-07
9.65371e-07
9.65371e-07
9.65341e-07
9.65323e-07
9.65249e-07
9.66802e-07
9.67374e-07
9.66505e-07
9.65251e-07
9.65294e-07
9.65346e-07
9.65351e-07
9.65371e-07
9.65351e-07
9.65346e-07
9.65294e-07
9.65251e-07
9.66798e-07
9.67373e-07
9.67175e-07
9.66398e-07
9.65287e-07
9.65307e-07
9.65346e-07
9.65341e-07
9.65346e-07
9.65307e-07
9.65287e-07
9.66624e-07
9.66769e-07
9.67332e-07
9.67177e-07
9.66645e-07
9.66394e-07
9.65287e-07
9.65294e-07
9.65323e-07
9.65294e-07
9.65287e-07
9.66604e-07
9.6671e-07
9.66786e-07
9.67177e-07
9.66644e-07
9.66407e-07
9.65251e-07
9.65249e-07
9.65251e-07
9.66624e-07
9.6671e-07
9.66769e-07
9.67306e-07
9.67178e-07
9.66712e-07
9.66794e-07
9.66802e-07
9.66798e-07
9.66769e-07
9.66786e-07
9.67306e-07
9.67187e-07
9.67348e-07
9.67374e-07
9.67373e-07
9.67332e-07
9.58872e-07
9.58229e-07
9.58172e-07
9.58218e-07
9.58898e-07
9.58905e-07
9.58879e-07
9.58317e-07
9.57934e-07
9.56928e-07
9.5693e-07
9.56928e-07
9.58086e-07
9.58347e-07
9.58903e-07
9.58317e-07
9.57902e-07
9.56948e-07
9.56963e-07
9.56976e-07
9.56963e-07
9.56948e-07
9.58072e-07
9.58345e-07
9.58905e-07
9.58872e-07
9.57934e-07
9.56948e-07
9.56972e-07
9.56999e-07
9.56999e-07
9.56999e-07
9.56972e-07
9.56948e-07
9.58092e-07
9.58425e-07
9.58914e-07
9.58229e-07
9.56928e-07
9.56963e-07
9.56999e-07
9.57013e-07
9.57026e-07
9.57013e-07
9.56999e-07
9.56963e-07
9.56928e-07
9.58499e-07
9.59074e-07
9.58172e-07
9.5693e-07
9.56976e-07
9.56999e-07
9.57027e-07
9.57029e-07
9.57027e-07
9.56999e-07
9.56976e-07
9.5693e-07
9.58499e-07
9.59097e-07
9.58218e-07
9.56928e-07
9.56963e-07
9.56999e-07
9.57013e-07
9.57027e-07
9.57013e-07
9.56999e-07
9.56963e-07
9.56928e-07
9.58498e-07
9.59097e-07
9.58898e-07
9.58086e-07
9.56948e-07
9.56972e-07
9.56999e-07
9.56999e-07
9.56999e-07
9.56972e-07
9.56948e-07
9.5831e-07
9.5848e-07
9.59058e-07
9.58905e-07
9.58347e-07
9.58072e-07
9.56948e-07
9.56963e-07
9.56976e-07
9.56963e-07
9.56948e-07
9.58285e-07
9.58408e-07
9.58509e-07
9.58903e-07
9.58345e-07
9.58092e-07
9.56928e-07
9.5693e-07
9.56928e-07
9.5831e-07
9.58408e-07
9.58486e-07
9.59035e-07
9.58905e-07
9.58425e-07
9.58499e-07
9.58499e-07
9.58498e-07
9.5848e-07
9.58509e-07
9.59035e-07
9.58914e-07
9.59074e-07
9.59097e-07
9.59097e-07
9.59058e-07
9.50598e-07
9.49951e-07
9.49893e-07
9.4994e-07
9.50623e-07
9.50631e-07
9.50605e-07
9.50039e-07
9.49649e-07
9.48634e-07
9.48636e-07
9.48634e-07
9.498e-07
9.50065e-07
9.50629e-07
9.50039e-07
9.49613e-07
9.48644e-07
9.48655e-07
9.48661e-07
9.48655e-07
9.48644e-07
9.4978e-07
9.50063e-07
9.50632e-07
9.50598e-07
9.49649e-07
9.48644e-07
9.4866e-07
9.48676e-07
9.48678e-07
9.48676e-07
9.4866e-07
9.48644e-07
9.49804e-07
9.50148e-07
9.5064e-07
9.49951e-07
9.48634e-07
9.48655e-07
9.48677e-07
9.48689e-07
9.48696e-07
9.48689e-07
9.48677e-07
9.48655e-07
9.48634e-07
9.5022e-07
9.508e-07
9.49893e-07
9.48636e-07
9.48661e-07
9.48678e-07
9.48696e-07
9.48699e-07
9.48696e-07
9.48678e-07
9.48661e-07
9.48636e-07
9.50217e-07
9.50823e-07
9.4994e-07
9.48634e-07
9.48655e-07
9.48676e-07
9.48689e-07
9.48696e-07
9.48689e-07
9.48676e-07
9.48655e-07
9.48634e-07
9.50217e-07
9.50822e-07
9.50623e-07
9.498e-07
9.48644e-07
9.4866e-07
9.48677e-07
9.48678e-07
9.48677e-07
9.4866e-07
9.48644e-07
9.50023e-07
9.50202e-07
9.50783e-07
9.50631e-07
9.50065e-07
9.4978e-07
9.48644e-07
9.48655e-07
9.48661e-07
9.48655e-07
9.48644e-07
9.49993e-07
9.50125e-07
9.50234e-07
9.50629e-07
9.50063e-07
9.49804e-07
9.48634e-07
9.48636e-07
9.48634e-07
9.50023e-07
9.50125e-07
9.50211e-07
9.50762e-07
9.50632e-07
9.50148e-07
9.5022e-07
9.50217e-07
9.50217e-07
9.50202e-07
9.50234e-07
9.50762e-07
9.5064e-07
9.508e-07
9.50823e-07
9.50822e-07
9.50783e-07
9.42322e-07
9.41673e-07
9.41615e-07
9.41662e-07
9.42347e-07
9.42355e-07
9.4233e-07
9.41761e-07
9.41368e-07
9.40349e-07
9.40351e-07
9.40349e-07
9.41519e-07
9.41787e-07
9.42353e-07
9.41761e-07
9.41331e-07
9.40355e-07
9.40362e-07
9.40364e-07
9.40362e-07
9.40355e-07
9.41498e-07
9.41784e-07
9.42356e-07
9.42322e-07
9.41369e-07
9.40355e-07
9.40364e-07
9.40373e-07
9.40375e-07
9.40373e-07
9.40364e-07
9.40355e-07
9.41523e-07
9.41871e-07
9.42364e-07
9.41673e-07
9.4035e-07
9.40362e-07
9.40373e-07
9.40382e-07
9.40386e-07
9.40382e-07
9.40373e-07
9.40362e-07
9.40349e-07
9.41942e-07
9.42524e-07
9.41615e-07
9.40351e-07
9.40364e-07
9.40375e-07
9.40386e-07
9.40387e-07
9.40386e-07
9.40375e-07
9.40364e-07
9.40351e-07
9.41938e-07
9.42546e-07
9.41662e-07
9.40349e-07
9.40362e-07
9.40373e-07
9.40382e-07
9.40386e-07
9.40382e-07
9.40373e-07
9.40362e-07
9.40349e-07
9.41938e-07
9.42546e-07
9.42347e-07
9.41519e-07
9.40355e-07
9.40364e-07
9.40373e-07
9.40375e-07
9.40373e-07
9.40364e-07
9.40355e-07
9.41742e-07
9.41925e-07
9.42507e-07
9.42355e-07
9.41787e-07
9.41498e-07
9.40355e-07
9.40362e-07
9.40364e-07
9.40362e-07
9.40355e-07
9.4171e-07
9.41846e-07
9.41958e-07
9.42353e-07
9.41784e-07
9.41523e-07
9.4035e-07
9.40351e-07
9.4035e-07
9.41742e-07
9.41846e-07
9.41934e-07
9.42487e-07
9.42356e-07
9.41871e-07
9.41941e-07
9.41938e-07
9.41938e-07
9.41925e-07
9.41958e-07
9.42487e-07
9.42364e-07
9.42524e-07
9.42546e-07
9.42546e-07
9.42507e-07
9.34044e-07
9.33395e-07
9.33337e-07
9.33384e-07
9.3407e-07
9.34078e-07
9.34053e-07
9.33483e-07
9.33089e-07
9.32068e-07
9.3207e-07
9.32068e-07
9.33241e-07
9.33509e-07
9.34077e-07
9.33483e-07
9.33052e-07
9.32071e-07
9.32076e-07
9.32077e-07
9.32076e-07
9.32071e-07
9.33218e-07
9.33507e-07
9.34079e-07
9.34044e-07
9.33089e-07
9.32071e-07
9.32077e-07
9.32081e-07
9.32083e-07
9.32081e-07
9.32077e-07
9.32071e-07
9.33244e-07
9.33594e-07
9.34087e-07
9.33395e-07
9.32068e-07
9.32076e-07
9.32082e-07
9.32087e-07
9.32089e-07
9.32087e-07
9.32082e-07
9.32076e-07
9.32068e-07
9.33664e-07
9.34246e-07
9.33337e-07
9.3207e-07
9.32077e-07
9.32083e-07
9.32089e-07
9.3209e-07
9.32089e-07
9.32083e-07
9.32077e-07
9.3207e-07
9.33659e-07
9.34269e-07
9.33384e-07
9.32068e-07
9.32076e-07
9.32081e-07
9.32087e-07
9.32089e-07
9.32087e-07
9.32081e-07
9.32076e-07
9.32068e-07
9.33659e-07
9.34268e-07
9.3407e-07
9.33241e-07
9.32071e-07
9.32077e-07
9.32082e-07
9.32083e-07
9.32082e-07
9.32077e-07
9.32071e-07
9.33463e-07
9.33648e-07
9.3423e-07
9.34078e-07
9.33509e-07
9.33218e-07
9.32071e-07
9.32076e-07
9.32077e-07
9.32076e-07
9.32071e-07
9.3343e-07
9.33568e-07
9.33681e-07
9.34077e-07
9.33507e-07
9.33244e-07
9.32068e-07
9.3207e-07
9.32068e-07
9.33462e-07
9.33568e-07
9.33657e-07
9.3421e-07
9.34079e-07
9.33594e-07
9.33664e-07
9.33659e-07
9.33659e-07
9.33648e-07
9.33681e-07
9.3421e-07
9.34087e-07
9.34246e-07
9.34269e-07
9.34268e-07
9.3423e-07
9.25767e-07
9.25117e-07
9.25059e-07
9.25106e-07
9.25792e-07
9.25801e-07
9.25775e-07
9.25205e-07
9.24811e-07
9.23789e-07
9.2379e-07
9.23789e-07
9.24962e-07
9.25231e-07
9.25799e-07
9.25205e-07
9.24773e-07
9.2379e-07
9.23794e-07
9.23794e-07
9.23794e-07
9.2379e-07
9.24939e-07
9.25229e-07
9.25802e-07
9.25767e-07
9.24811e-07
9.2379e-07
9.23794e-07
9.23796e-07
9.23797e-07
9.23796e-07
9.23794e-07
9.2379e-07
9.24965e-07
9.25316e-07
9.25809e-07
9.25117e-07
9.23789e-07
9.23794e-07
9.23796e-07
9.238e-07
9.238e-07
9.238e-07
9.23796e-07
9.23794e-07
9.23789e-07
9.25386e-07
9.25969e-07
9.25059e-07
9.2379e-07
9.23794e-07
9.23797e-07
9.238e-07
9.23801e-07
9.238e-07
9.23797e-07
9.23794e-07
9.2379e-07
9.25381e-07
9.25991e-07
9.25106e-07
9.23789e-07
9.23794e-07
9.23796e-07
9.238e-07
9.23801e-07
9.238e-07
9.23796e-07
9.23794e-07
9.23789e-07
9.25381e-07
9.25991e-07
9.25792e-07
9.24962e-07
9.2379e-07
9.23794e-07
9.23796e-07
9.23797e-07
9.23796e-07
9.23794e-07
9.2379e-07
9.25184e-07
9.2537e-07
9.25952e-07
9.25801e-07
9.25231e-07
9.24939e-07
9.2379e-07
9.23794e-07
9.23794e-07
9.23794e-07
9.2379e-07
9.25151e-07
9.2529e-07
9.25404e-07
9.25799e-07
9.25229e-07
9.24965e-07
9.23789e-07
9.2379e-07
9.23789e-07
9.25184e-07
9.2529e-07
9.2538e-07
9.25933e-07
9.25802e-07
9.25316e-07
9.25386e-07
9.25381e-07
9.25381e-07
9.2537e-07
9.25404e-07
9.25933e-07
9.25809e-07
9.25969e-07
9.25991e-07
9.25991e-07
9.25952e-07
9.17489e-07
9.16839e-07
9.16781e-07
9.16828e-07
9.17514e-07
9.17523e-07
9.17497e-07
9.16928e-07
9.16533e-07
9.1551e-07
9.15511e-07
9.1551e-07
9.16684e-07
9.16953e-07
9.17521e-07
9.16928e-07
9.16494e-07
9.15511e-07
9.15513e-07
9.15513e-07
9.15513e-07
9.15511e-07
9.16661e-07
9.16951e-07
9.17524e-07
9.17489e-07
9.16533e-07
9.15511e-07
9.15513e-07
9.15514e-07
9.15515e-07
9.15514e-07
9.15513e-07
9.15511e-07
9.16687e-07
9.17038e-07
9.17532e-07
9.16839e-07
9.1551e-07
9.15513e-07
9.15514e-07
9.15517e-07
9.15517e-07
9.15517e-07
9.15514e-07
9.15513e-07
9.1551e-07
9.17108e-07
9.17691e-07
9.16781e-07
9.15511e-07
9.15513e-07
9.15515e-07
9.15517e-07
9.15517e-07
9.15517e-07
9.15515e-07
9.15513e-07
9.15511e-07
9.17103e-07
9.17713e-07
9.16828e-07
9.1551e-07
9.15513e-07
9.15514e-07
9.15517e-07
9.15517e-07
9.15517e-07
9.15514e-07
9.15514e-07
9.1551e-07
9.17103e-07
9.17713e-07
9.17514e-07
9.16684e-07
9.15511e-07
9.15513e-07
9.15514e-07
9.15515e-07
9.15514e-07
9.15513e-07
9.15511e-07
9.16906e-07
9.17092e-07
9.17675e-07
9.17523e-07
9.16953e-07
9.16661e-07
9.15511e-07
9.15514e-07
9.15513e-07
9.15513e-07
9.15511e-07
9.16873e-07
9.17012e-07
9.17126e-07
9.17521e-07
9.16951e-07
9.16687e-07
9.1551e-07
9.15511e-07
9.1551e-07
9.16906e-07
9.17012e-07
9.17102e-07
9.17655e-07
9.17524e-07
9.17038e-07
9.17108e-07
9.17103e-07
9.17103e-07
9.17092e-07
9.17126e-07
9.17655e-07
9.17532e-07
9.17691e-07
9.17713e-07
9.17713e-07
9.17675e-07
9.09211e-07
9.08561e-07
9.08502e-07
9.0855e-07
9.09236e-07
9.09245e-07
9.09219e-07
9.08649e-07
9.08254e-07
9.07232e-07
9.07232e-07
9.07232e-07
9.08406e-07
9.08675e-07
9.09243e-07
9.08649e-07
9.08216e-07
9.07232e-07
9.07234e-07
9.07233e-07
9.07234e-07
9.07232e-07
9.08383e-07
9.08672e-07
9.09246e-07
9.09211e-07
9.08254e-07
9.07232e-07
9.07234e-07
9.07234e-07
9.07235e-07
9.07234e-07
9.07234e-07
9.07232e-07
9.08409e-07
9.0876e-07
9.09254e-07
9.08561e-07
9.07232e-07
9.07234e-07
9.07234e-07
9.07236e-07
9.07235e-07
9.07236e-07
9.07234e-07
9.07234e-07
9.07232e-07
9.08829e-07
9.09413e-07
9.08502e-07
9.07232e-07
9.07234e-07
9.07235e-07
9.07235e-07
9.07236e-07
9.07235e-07
9.07235e-07
9.07234e-07
9.07232e-07
9.08825e-07
9.09435e-07
9.0855e-07
9.07232e-07
9.07234e-07
9.07234e-07
9.07236e-07
9.07235e-07
9.07236e-07
9.07234e-07
9.07234e-07
9.07231e-07
9.08825e-07
9.09435e-07
9.09236e-07
9.08406e-07
9.07232e-07
9.07234e-07
9.07234e-07
9.07235e-07
9.07234e-07
9.07234e-07
9.07232e-07
9.08627e-07
9.08814e-07
9.09396e-07
9.09245e-07
9.08675e-07
9.08383e-07
9.07232e-07
9.07234e-07
9.07234e-07
9.07234e-07
9.07232e-07
9.08595e-07
9.08734e-07
9.08848e-07
9.09243e-07
9.08672e-07
9.08409e-07
9.07232e-07
9.07232e-07
9.07231e-07
9.08627e-07
9.08734e-07
9.08824e-07
9.09377e-07
9.09246e-07
9.0876e-07
9.08829e-07
9.08825e-07
9.08825e-07
9.08814e-07
9.08848e-07
9.09377e-07
9.09254e-07
9.09413e-07
9.09435e-07
9.09435e-07
9.09396e-07
9.00933e-07
9.00283e-07
9.00224e-07
9.00272e-07
9.00958e-07
9.00967e-07
9.00942e-07
9.00371e-07
8.99976e-07
8.98953e-07
8.98954e-07
8.98953e-07
9.00128e-07
9.00397e-07
9.00965e-07
9.00372e-07
8.99938e-07
8.98954e-07
8.98956e-07
8.98955e-07
8.98956e-07
8.98954e-07
9.00105e-07
9.00394e-07
9.00968e-07
9.00933e-07
8.99976e-07
8.98954e-07
8.98955e-07
8.98955e-07
8.98955e-07
8.98955e-07
8.98955e-07
8.98954e-07
9.00131e-07
9.00482e-07
9.00975e-07
9.00283e-07
8.98953e-07
8.98956e-07
8.98955e-07
8.98956e-07
8.98955e-07
8.98956e-07
8.98955e-07
8.98956e-07
8.98953e-07
9.00551e-07
9.01135e-07
9.00224e-07
8.98954e-07
8.98955e-07
8.98955e-07
8.98955e-07
8.98956e-07
8.98955e-07
8.98955e-07
8.98955e-07
8.98954e-07
9.00547e-07
9.01157e-07
9.00272e-07
8.98953e-07
8.98956e-07
8.98955e-07
8.98957e-07
8.98955e-07
8.98956e-07
8.98955e-07
8.98956e-07
8.98953e-07
9.00547e-07
9.01156e-07
9.00958e-07
9.00128e-07
8.98954e-07
8.98955e-07
8.98955e-07
8.98955e-07
8.98955e-07
8.98955e-07
8.98954e-07
9.00349e-07
9.00536e-07
9.01118e-07
9.00967e-07
9.00397e-07
9.00105e-07
8.98954e-07
8.98956e-07
8.98955e-07
8.98956e-07
8.98954e-07
9.00316e-07
9.00456e-07
9.0057e-07
9.00965e-07
9.00394e-07
9.00131e-07
8.98953e-07
8.98954e-07
8.98953e-07
9.00349e-07
9.00456e-07
9.00546e-07
9.01099e-07
9.00968e-07
9.00482e-07
9.00551e-07
9.00547e-07
9.00547e-07
9.00536e-07
9.0057e-07
9.01099e-07
9.00975e-07
9.01135e-07
9.01157e-07
9.01157e-07
9.01118e-07
8.92655e-07
8.92005e-07
8.91946e-07
8.91994e-07
8.9268e-07
8.92689e-07
8.92663e-07
8.92093e-07
8.91698e-07
8.90675e-07
8.90676e-07
8.90675e-07
8.9185e-07
8.92119e-07
8.92687e-07
8.92094e-07
8.9166e-07
8.90675e-07
8.90677e-07
8.90676e-07
8.90677e-07
8.90675e-07
8.91827e-07
8.92116e-07
8.9269e-07
8.92655e-07
8.91698e-07
8.90675e-07
8.90677e-07
8.90676e-07
8.90677e-07
8.90676e-07
8.90676e-07
8.90675e-07
8.91852e-07
8.92204e-07
8.92697e-07
8.92005e-07
8.90675e-07
8.90677e-07
8.90676e-07
8.90678e-07
8.90676e-07
8.90678e-07
8.90676e-07
8.90677e-07
8.90675e-07
8.92273e-07
8.92857e-07
8.91946e-07
8.90676e-07
8.90676e-07
8.90677e-07
8.90676e-07
8.90677e-07
8.90676e-07
8.90676e-07
8.90676e-07
8.90675e-07
8.92269e-07
8.92879e-07
8.91994e-07
8.90675e-07
8.90678e-07
8.90676e-07
8.90678e-07
8.90676e-07
8.90678e-07
8.90676e-07
8.90677e-07
8.90675e-07
8.92269e-07
8.92878e-07
8.9268e-07
8.9185e-07
8.90676e-07
8.90677e-07
8.90676e-07
8.90677e-07
8.90676e-07
8.90676e-07
8.90675e-07
8.92071e-07
8.92258e-07
8.9284e-07
8.92689e-07
8.92119e-07
8.91827e-07
8.90675e-07
8.90678e-07
8.90676e-07
8.90678e-07
8.90675e-07
8.92039e-07
8.92178e-07
8.92292e-07
8.92687e-07
8.92116e-07
8.91852e-07
8.90675e-07
8.90676e-07
8.90675e-07
8.92071e-07
8.92178e-07
8.92268e-07
8.92821e-07
8.9269e-07
8.92204e-07
8.92273e-07
8.92269e-07
8.92269e-07
8.92258e-07
8.92292e-07
8.92821e-07
8.92697e-07
8.92857e-07
8.92879e-07
8.92878e-07
8.9284e-07
8.84377e-07
8.83727e-07
8.83668e-07
8.83715e-07
8.84402e-07
8.84411e-07
8.84385e-07
8.83815e-07
8.8342e-07
8.82397e-07
8.82397e-07
8.82397e-07
8.83571e-07
8.83841e-07
8.84409e-07
8.83815e-07
8.83382e-07
8.82397e-07
8.82399e-07
8.82398e-07
8.82399e-07
8.82397e-07
8.83548e-07
8.83838e-07
8.84412e-07
8.84377e-07
8.8342e-07
8.82397e-07
8.82398e-07
8.82398e-07
8.82398e-07
8.82398e-07
8.82398e-07
8.82397e-07
8.83574e-07
8.83926e-07
8.84419e-07
8.83727e-07
8.82397e-07
8.82399e-07
8.82398e-07
8.82399e-07
8.82398e-07
8.82399e-07
8.82398e-07
8.82399e-07
8.82397e-07
8.83995e-07
8.84579e-07
8.83668e-07
8.82398e-07
8.82398e-07
8.82398e-07
8.82398e-07
8.82399e-07
8.82398e-07
8.82398e-07
8.82398e-07
8.82398e-07
8.83991e-07
8.84601e-07
8.83715e-07
8.82397e-07
8.82399e-07
8.82398e-07
8.82399e-07
8.82398e-07
8.82399e-07
8.82398e-07
8.82399e-07
8.82397e-07
8.83991e-07
8.846e-07
8.84402e-07
8.83571e-07
8.82397e-07
8.82398e-07
8.82398e-07
8.82398e-07
8.82398e-07
8.82398e-07
8.82397e-07
8.83793e-07
8.8398e-07
8.84562e-07
8.84411e-07
8.83841e-07
8.83548e-07
8.82397e-07
8.82399e-07
8.82398e-07
8.82399e-07
8.82397e-07
8.8376e-07
8.839e-07
8.84014e-07
8.84409e-07
8.83838e-07
8.83574e-07
8.82397e-07
8.82398e-07
8.82397e-07
8.83793e-07
8.839e-07
8.8399e-07
8.84543e-07
8.84412e-07
8.83926e-07
8.83995e-07
8.83991e-07
8.83991e-07
8.8398e-07
8.84014e-07
8.84543e-07
8.84419e-07
8.84579e-07
8.84601e-07
8.846e-07
8.84562e-07
8.76099e-07
8.75448e-07
8.7539e-07
8.75437e-07
8.76124e-07
8.76132e-07
8.76107e-07
8.75537e-07
8.75142e-07
8.74118e-07
8.74119e-07
8.74119e-07
8.75293e-07
8.75563e-07
8.76131e-07
8.75537e-07
8.75103e-07
8.74119e-07
8.74121e-07
8.7412e-07
8.74121e-07
8.74119e-07
8.7527e-07
8.7556e-07
8.76134e-07
8.76099e-07
8.75142e-07
8.74119e-07
8.7412e-07
8.74119e-07
8.7412e-07
8.74119e-07
8.7412e-07
8.74119e-07
8.75296e-07
8.75648e-07
8.76141e-07
8.75448e-07
8.74119e-07
8.74121e-07
8.74119e-07
8.74121e-07
8.7412e-07
8.74121e-07
8.74119e-07
8.74121e-07
8.74119e-07
8.75717e-07
8.76301e-07
8.7539e-07
8.74119e-07
8.7412e-07
8.7412e-07
8.7412e-07
8.7412e-07
8.7412e-07
8.7412e-07
8.7412e-07
8.74119e-07
8.75712e-07
8.76323e-07
8.75437e-07
8.74119e-07
8.74121e-07
8.74119e-07
8.74121e-07
8.7412e-07
8.74121e-07
8.74119e-07
8.74121e-07
8.74119e-07
8.75713e-07
8.76322e-07
8.76124e-07
8.75293e-07
8.74119e-07
8.7412e-07
8.74119e-07
8.7412e-07
8.74119e-07
8.7412e-07
8.74119e-07
8.75515e-07
8.75702e-07
8.76284e-07
8.76133e-07
8.75563e-07
8.7527e-07
8.74119e-07
8.74121e-07
8.7412e-07
8.74121e-07
8.74119e-07
8.75482e-07
8.75622e-07
8.75736e-07
8.76131e-07
8.7556e-07
8.75296e-07
8.74119e-07
8.74119e-07
8.74119e-07
8.75515e-07
8.75622e-07
8.75712e-07
8.76265e-07
8.76134e-07
8.75648e-07
8.75717e-07
8.75712e-07
8.75713e-07
8.75702e-07
8.75736e-07
8.76265e-07
8.76141e-07
8.76301e-07
8.76323e-07
8.76322e-07
8.76284e-07
8.67821e-07
8.6717e-07
8.67112e-07
8.67159e-07
8.67846e-07
8.67854e-07
8.67829e-07
8.67259e-07
8.66864e-07
8.6584e-07
8.65841e-07
8.6584e-07
8.67015e-07
8.67285e-07
8.67853e-07
8.67259e-07
8.66825e-07
8.65841e-07
8.65843e-07
8.65841e-07
8.65843e-07
8.65841e-07
8.66992e-07
8.67282e-07
8.67856e-07
8.67821e-07
8.66864e-07
8.65841e-07
8.65842e-07
8.65841e-07
8.65842e-07
8.65841e-07
8.65842e-07
8.65841e-07
8.67018e-07
8.6737e-07
8.67863e-07
8.6717e-07
8.6584e-07
8.65843e-07
8.65841e-07
8.65843e-07
8.65841e-07
8.65843e-07
8.65841e-07
8.65843e-07
8.65841e-07
8.67439e-07
8.68023e-07
8.67112e-07
8.65841e-07
8.65841e-07
8.65842e-07
8.65841e-07
8.65842e-07
8.65841e-07
8.65842e-07
8.65841e-07
8.65841e-07
8.67434e-07
8.68045e-07
8.67159e-07
8.6584e-07
8.65843e-07
8.65841e-07
8.65843e-07
8.65841e-07
8.65843e-07
8.65841e-07
8.65843e-07
8.65841e-07
8.67434e-07
8.68044e-07
8.67846e-07
8.67015e-07
8.65841e-07
8.65842e-07
8.65841e-07
8.65842e-07
8.65841e-07
8.65842e-07
8.65841e-07
8.67237e-07
8.67424e-07
8.68006e-07
8.67854e-07
8.67285e-07
8.66992e-07
8.65841e-07
8.65843e-07
8.65841e-07
8.65843e-07
8.65841e-07
8.67204e-07
8.67343e-07
8.67458e-07
8.67853e-07
8.67282e-07
8.67018e-07
8.65841e-07
8.65841e-07
8.65841e-07
8.67237e-07
8.67343e-07
8.67433e-07
8.67987e-07
8.67856e-07
8.6737e-07
8.67439e-07
8.67434e-07
8.67434e-07
8.67423e-07
8.67458e-07
8.67987e-07
8.67863e-07
8.68023e-07
8.68045e-07
8.68044e-07
8.68006e-07
8.59543e-07
8.58892e-07
8.58834e-07
8.58881e-07
8.59568e-07
8.59576e-07
8.59551e-07
8.58981e-07
8.58586e-07
8.57562e-07
8.57563e-07
8.57562e-07
8.58737e-07
8.59007e-07
8.59575e-07
8.58981e-07
8.58547e-07
8.57563e-07
8.57565e-07
8.57563e-07
8.57565e-07
8.57563e-07
8.58714e-07
8.59004e-07
8.59578e-07
8.59543e-07
8.58586e-07
8.57563e-07
8.57564e-07
8.57563e-07
8.57563e-07
8.57563e-07
8.57564e-07
8.57563e-07
8.5874e-07
8.59091e-07
8.59585e-07
8.58892e-07
8.57562e-07
8.57565e-07
8.57563e-07
8.57564e-07
8.57563e-07
8.57564e-07
8.57563e-07
8.57565e-07
8.57562e-07
8.59161e-07
8.59745e-07
8.58834e-07
8.57563e-07
8.57563e-07
8.57563e-07
8.57563e-07
8.57563e-07
8.57563e-07
8.57563e-07
8.57563e-07
8.57563e-07
8.59156e-07
8.59767e-07
8.58881e-07
8.57562e-07
8.57565e-07
8.57563e-07
8.57564e-07
8.57563e-07
8.57565e-07
8.57563e-07
8.57565e-07
8.57562e-07
8.59156e-07
8.59766e-07
8.59568e-07
8.58737e-07
8.57563e-07
8.57564e-07
8.57563e-07
8.57563e-07
8.57563e-07
8.57564e-07
8.57563e-07
8.58959e-07
8.59145e-07
8.59728e-07
8.59576e-07
8.59007e-07
8.58714e-07
8.57563e-07
8.57565e-07
8.57563e-07
8.57565e-07
8.57563e-07
8.58926e-07
8.59065e-07
8.5918e-07
8.59575e-07
8.59004e-07
8.5874e-07
8.57562e-07
8.57563e-07
8.57562e-07
8.58959e-07
8.59065e-07
8.59155e-07
8.59708e-07
8.59578e-07
8.59092e-07
8.59161e-07
8.59156e-07
8.59156e-07
8.59145e-07
8.5918e-07
8.59708e-07
8.59585e-07
8.59745e-07
8.59767e-07
8.59766e-07
8.59728e-07
8.51265e-07
8.50614e-07
8.50556e-07
8.50603e-07
8.5129e-07
8.51298e-07
8.51273e-07
8.50703e-07
8.50308e-07
8.49284e-07
8.49285e-07
8.49284e-07
8.50459e-07
8.50729e-07
8.51297e-07
8.50703e-07
8.50269e-07
8.49285e-07
8.49287e-07
8.49285e-07
8.49287e-07
8.49285e-07
8.50436e-07
8.50726e-07
8.513e-07
8.51265e-07
8.50308e-07
8.49285e-07
8.49286e-07
8.49285e-07
8.49285e-07
8.49285e-07
8.49286e-07
8.49285e-07
8.50462e-07
8.50813e-07
8.51307e-07
8.50614e-07
8.49284e-07
8.49287e-07
8.49285e-07
8.49286e-07
8.49285e-07
8.49286e-07
8.49285e-07
8.49287e-07
8.49284e-07
8.50883e-07
8.51466e-07
8.50556e-07
8.49285e-07
8.49285e-07
8.49285e-07
8.49285e-07
8.49285e-07
8.49285e-07
8.49285e-07
8.49285e-07
8.49285e-07
8.50878e-07
8.51488e-07
8.50603e-07
8.49284e-07
8.49287e-07
8.49285e-07
8.49286e-07
8.49285e-07
8.49286e-07
8.49285e-07
8.49286e-07
8.49284e-07
8.50878e-07
8.51488e-07
8.5129e-07
8.50459e-07
8.49285e-07
8.49286e-07
8.49285e-07
8.49285e-07
8.49285e-07
8.49286e-07
8.49285e-07
8.50681e-07
8.50867e-07
8.5145e-07
8.51298e-07
8.50729e-07
8.50436e-07
8.49285e-07
8.49287e-07
8.49285e-07
8.49286e-07
8.49285e-07
8.50648e-07
8.50787e-07
8.50902e-07
8.51297e-07
8.50726e-07
8.50462e-07
8.49284e-07
8.49285e-07
8.49284e-07
8.50681e-07
8.50787e-07
8.50877e-07
8.5143e-07
8.513e-07
8.50813e-07
8.50883e-07
8.50878e-07
8.50878e-07
8.50867e-07
8.50902e-07
8.5143e-07
8.51307e-07
8.51466e-07
8.51488e-07
8.51488e-07
8.5145e-07
8.42987e-07
8.42336e-07
8.42278e-07
8.42325e-07
8.43012e-07
8.4302e-07
8.42995e-07
8.42425e-07
8.4203e-07
8.41006e-07
8.41007e-07
8.41006e-07
8.42181e-07
8.4245e-07
8.43019e-07
8.42425e-07
8.41991e-07
8.41007e-07
8.41008e-07
8.41007e-07
8.41008e-07
8.41007e-07
8.42158e-07
8.42448e-07
8.43022e-07
8.42986e-07
8.4203e-07
8.41007e-07
8.41008e-07
8.41007e-07
8.41007e-07
8.41007e-07
8.41007e-07
8.41007e-07
8.42184e-07
8.42535e-07
8.43029e-07
8.42336e-07
8.41006e-07
8.41008e-07
8.41007e-07
8.41008e-07
8.41007e-07
8.41008e-07
8.41007e-07
8.41008e-07
8.41006e-07
8.42605e-07
8.43188e-07
8.42278e-07
8.41007e-07
8.41007e-07
8.41007e-07
8.41007e-07
8.41007e-07
8.41007e-07
8.41007e-07
8.41007e-07
8.41007e-07
8.426e-07
8.4321e-07
8.42325e-07
8.41006e-07
8.41008e-07
8.41007e-07
8.41008e-07
8.41007e-07
8.41008e-07
8.41007e-07
8.41008e-07
8.41006e-07
8.426e-07
8.4321e-07
8.43012e-07
8.42181e-07
8.41007e-07
8.41007e-07
8.41007e-07
8.41007e-07
8.41007e-07
8.41007e-07
8.41007e-07
8.42403e-07
8.42589e-07
8.43172e-07
8.4302e-07
8.4245e-07
8.42158e-07
8.41007e-07
8.41008e-07
8.41007e-07
8.41008e-07
8.41007e-07
8.4237e-07
8.42509e-07
8.42623e-07
8.43019e-07
8.42448e-07
8.42184e-07
8.41006e-07
8.41007e-07
8.41006e-07
8.42403e-07
8.42509e-07
8.42599e-07
8.43152e-07
8.43022e-07
8.42535e-07
8.42605e-07
8.426e-07
8.426e-07
8.42589e-07
8.42623e-07
8.43152e-07
8.43029e-07
8.43188e-07
8.4321e-07
8.4321e-07
8.43172e-07
8.34708e-07
8.34058e-07
8.34e-07
8.34047e-07
8.34734e-07
8.34742e-07
8.34717e-07
8.34147e-07
8.33751e-07
8.32728e-07
8.32729e-07
8.32728e-07
8.33903e-07
8.34172e-07
8.34741e-07
8.34147e-07
8.33713e-07
8.32729e-07
8.3273e-07
8.32729e-07
8.3273e-07
8.32729e-07
8.3388e-07
8.3417e-07
8.34743e-07
8.34708e-07
8.33751e-07
8.32729e-07
8.32729e-07
8.32729e-07
8.32729e-07
8.32729e-07
8.32729e-07
8.32729e-07
8.33906e-07
8.34257e-07
8.34751e-07
8.34058e-07
8.32728e-07
8.3273e-07
8.32729e-07
8.3273e-07
8.32729e-07
8.3273e-07
8.32729e-07
8.3273e-07
8.32728e-07
8.34327e-07
8.3491e-07
8.34e-07
8.32729e-07
8.32729e-07
8.32729e-07
8.32729e-07
8.32729e-07
8.32729e-07
8.32729e-07
8.32729e-07
8.32729e-07
8.34322e-07
8.34932e-07
8.34047e-07
8.32728e-07
8.3273e-07
8.32729e-07
8.3273e-07
8.32729e-07
8.3273e-07
8.32729e-07
8.3273e-07
8.32728e-07
8.34322e-07
8.34932e-07
8.34734e-07
8.33903e-07
8.32729e-07
8.32729e-07
8.32729e-07
8.32729e-07
8.32729e-07
8.32729e-07
8.32729e-07
8.34124e-07
8.34311e-07
8.34894e-07
8.34742e-07
8.34172e-07
8.3388e-07
8.32729e-07
8.3273e-07
8.32729e-07
8.3273e-07
8.32729e-07
8.34092e-07
8.34231e-07
8.34345e-07
8.34741e-07
8.3417e-07
8.33906e-07
8.32728e-07
8.32729e-07
8.32728e-07
8.34125e-07
8.34231e-07
8.34321e-07
8.34874e-07
8.34743e-07
8.34257e-07
8.34327e-07
8.34322e-07
8.34322e-07
8.34311e-07
8.34345e-07
8.34874e-07
8.34751e-07
8.3491e-07
8.34932e-07
8.34932e-07
8.34894e-07
8.2643e-07
8.2578e-07
8.25721e-07
8.25769e-07
8.26455e-07
8.26464e-07
8.26439e-07
8.25869e-07
8.25473e-07
8.2445e-07
8.24451e-07
8.2445e-07
8.25625e-07
8.25894e-07
8.26462e-07
8.25869e-07
8.25435e-07
8.2445e-07
8.24452e-07
8.24451e-07
8.24452e-07
8.2445e-07
8.25602e-07
8.25891e-07
8.26465e-07
8.2643e-07
8.25473e-07
8.2445e-07
8.24451e-07
8.2445e-07
8.24451e-07
8.2445e-07
8.24451e-07
8.2445e-07
8.25628e-07
8.25979e-07
8.26473e-07
8.2578e-07
8.2445e-07
8.24452e-07
8.2445e-07
8.24452e-07
8.24451e-07
8.24452e-07
8.2445e-07
8.24452e-07
8.2445e-07
8.26049e-07
8.26632e-07
8.25721e-07
8.24451e-07
8.24451e-07
8.24451e-07
8.24451e-07
8.24451e-07
8.24451e-07
8.24451e-07
8.24451e-07
8.24451e-07
8.26044e-07
8.26654e-07
8.25769e-07
8.2445e-07
8.24452e-07
8.2445e-07
8.24452e-07
8.24451e-07
8.24452e-07
8.2445e-07
8.24452e-07
8.2445e-07
8.26044e-07
8.26654e-07
8.26455e-07
8.25625e-07
8.2445e-07
8.24451e-07
8.2445e-07
8.24451e-07
8.2445e-07
8.24451e-07
8.2445e-07
8.25846e-07
8.26033e-07
8.26616e-07
8.26464e-07
8.25894e-07
8.25602e-07
8.2445e-07
8.24452e-07
8.24451e-07
8.24452e-07
8.2445e-07
8.25814e-07
8.25953e-07
8.26067e-07
8.26462e-07
8.25891e-07
8.25627e-07
8.2445e-07
8.24451e-07
8.2445e-07
8.25846e-07
8.25953e-07
8.26043e-07
8.26596e-07
8.26465e-07
8.25979e-07
8.26049e-07
8.26044e-07
8.26044e-07
8.26033e-07
8.26067e-07
8.26596e-07
8.26473e-07
8.26632e-07
8.26654e-07
8.26654e-07
8.26616e-07
8.18152e-07
8.17502e-07
8.17443e-07
8.17491e-07
8.18177e-07
8.18186e-07
8.1816e-07
8.1759e-07
8.17195e-07
8.16172e-07
8.16173e-07
8.16172e-07
8.17347e-07
8.17616e-07
8.18184e-07
8.1759e-07
8.17157e-07
8.16172e-07
8.16174e-07
8.16173e-07
8.16174e-07
8.16172e-07
8.17324e-07
8.17613e-07
8.18187e-07
8.18152e-07
8.17195e-07
8.16172e-07
8.16173e-07
8.16172e-07
8.16173e-07
8.16172e-07
8.16173e-07
8.16172e-07
8.17349e-07
8.17701e-07
8.18195e-07
8.17502e-07
8.16172e-07
8.16174e-07
8.16172e-07
8.16174e-07
8.16173e-07
8.16174e-07
8.16172e-07
8.16174e-07
8.16172e-07
8.1777e-07
8.18354e-07
8.17443e-07
8.16173e-07
8.16173e-07
8.16173e-07
8.16173e-07
8.16173e-07
8.16173e-07
8.16173e-07
8.16173e-07
8.16173e-07
8.17766e-07
8.18376e-07
8.17491e-07
8.16172e-07
8.16174e-07
8.16172e-07
8.16174e-07
8.16173e-07
8.16174e-07
8.16172e-07
8.16174e-07
8.16172e-07