/*--------------------------------*- C++ -*----------------------------------*\
| =========                 |                                                 |
| \\      /  F ield         | OpenFOAM: The Open Source CFD Toolbox           |
|  \\    /   O peration     | Version:  v2012                                 |
|   \\  /    A nd           | Website:  www.openfoam.com                      |
|    \\/     M anipulation  |                                                 |
\*---------------------------------------------------------------------------*/
FoamFile
{
    version     2.0;
    format      ascii;
    class       volScalarField;
    location    "59";
    object      p;
}
// * * * * * * * * * * * * * * * * * * * * * * * * * * * * * * * * * * * * * //

dimensions      [0 2 -2 0 0 0 0];


internalField   nonuniform List<scalar> 
292667
(
1.12779e-06
1.11863e-06
1.11792e-06
1.11798e-06
1.11895e-06
1.12867e-06
1.11884e-06
1.11637e-06
1.11492e-06
1.11433e-06
1.1144e-06
1.11518e-06
1.11684e-06
1.11953e-06
1.11884e-06
1.11565e-06
1.11365e-06
1.11255e-06
1.11209e-06
1.11215e-06
1.11275e-06
1.11403e-06
1.11628e-06
1.11973e-06
1.12779e-06
1.11637e-06
1.11365e-06
1.11203e-06
1.11113e-06
1.11074e-06
1.11079e-06
1.11129e-06
1.11235e-06
1.11419e-06
1.11723e-06
1.12734e-06
1.11863e-06
1.11492e-06
1.11255e-06
1.11113e-06
1.11032e-06
1.10997e-06
1.11002e-06
1.11047e-06
1.11141e-06
1.11303e-06
1.11571e-06
1.1221e-06
1.11792e-06
1.11433e-06
1.11209e-06
1.11074e-06
1.10997e-06
1.10963e-06
1.10968e-06
1.11011e-06
1.11101e-06
1.11254e-06
1.11509e-06
1.12053e-06
1.11798e-06
1.1144e-06
1.11215e-06
1.11079e-06
1.11002e-06
1.10968e-06
1.10973e-06
1.11016e-06
1.11107e-06
1.11261e-06
1.11518e-06
1.12084e-06
1.11895e-06
1.11518e-06
1.11275e-06
1.11129e-06
1.11047e-06
1.11011e-06
1.11016e-06
1.11063e-06
1.11159e-06
1.11325e-06
1.11601e-06
1.1224e-06
1.12867e-06
1.11684e-06
1.11403e-06
1.11235e-06
1.11141e-06
1.11101e-06
1.11107e-06
1.11159e-06
1.11269e-06
1.11461e-06
1.11776e-06
1.12722e-06
1.11953e-06
1.11628e-06
1.11419e-06
1.11303e-06
1.11254e-06
1.11261e-06
1.11325e-06
1.11461e-06
1.11699e-06
1.12306e-06
1.11973e-06
1.11723e-06
1.11571e-06
1.11509e-06
1.11518e-06
1.11601e-06
1.11776e-06
1.12306e-06
1.12734e-06
1.1221e-06
1.12053e-06
1.12084e-06
1.1224e-06
1.12722e-06
1.10256e-06
1.10182e-06
1.10179e-06
1.10183e-06
1.10257e-06
1.10245e-06
1.10261e-06
1.10202e-06
1.10167e-06
1.1004e-06
1.10038e-06
1.1004e-06
1.10183e-06
1.10208e-06
1.10264e-06
1.10202e-06
1.10165e-06
1.10044e-06
1.10039e-06
1.10044e-06
1.10039e-06
1.10044e-06
1.10181e-06
1.10206e-06
1.10262e-06
1.10256e-06
1.10167e-06
1.10044e-06
1.10038e-06
1.10041e-06
1.10039e-06
1.10041e-06
1.10038e-06
1.10044e-06
1.1018e-06
1.10209e-06
1.10265e-06
1.10182e-06
1.1004e-06
1.10039e-06
1.10041e-06
1.10037e-06
1.10037e-06
1.10037e-06
1.10041e-06
1.10039e-06
1.1004e-06
1.10223e-06
1.10282e-06
1.10179e-06
1.10038e-06
1.10044e-06
1.10039e-06
1.10037e-06
1.10037e-06
1.10037e-06
1.10039e-06
1.10044e-06
1.10038e-06
1.10225e-06
1.10274e-06
1.10183e-06
1.1004e-06
1.10039e-06
1.10041e-06
1.10037e-06
1.10037e-06
1.10037e-06
1.10041e-06
1.10039e-06
1.1004e-06
1.10225e-06
1.10276e-06
1.10257e-06
1.10183e-06
1.10044e-06
1.10038e-06
1.10041e-06
1.10039e-06
1.10041e-06
1.10038e-06
1.10044e-06
1.10199e-06
1.10214e-06
1.10278e-06
1.10245e-06
1.10208e-06
1.10181e-06
1.10044e-06
1.10039e-06
1.10044e-06
1.10039e-06
1.10044e-06
1.10196e-06
1.10211e-06
1.10212e-06
1.10264e-06
1.10206e-06
1.1018e-06
1.1004e-06
1.10038e-06
1.1004e-06
1.10199e-06
1.10211e-06
1.10216e-06
1.10274e-06
1.10262e-06
1.10209e-06
1.10223e-06
1.10225e-06
1.10225e-06
1.10214e-06
1.10212e-06
1.10275e-06
1.10265e-06
1.10282e-06
1.10274e-06
1.10276e-06
1.10278e-06
1.09319e-06
1.09241e-06
1.09235e-06
1.0924e-06
1.09319e-06
1.09322e-06
1.09321e-06
1.09253e-06
1.09211e-06
1.09088e-06
1.09088e-06
1.09088e-06
1.09227e-06
1.09256e-06
1.09321e-06
1.09253e-06
1.09209e-06
1.09092e-06
1.09092e-06
1.09096e-06
1.09092e-06
1.09092e-06
1.09227e-06
1.09256e-06
1.09321e-06
1.09319e-06
1.09211e-06
1.09092e-06
1.09094e-06
1.09099e-06
1.09099e-06
1.09099e-06
1.09094e-06
1.09092e-06
1.09228e-06
1.09262e-06
1.09324e-06
1.09241e-06
1.09088e-06
1.09093e-06
1.09099e-06
1.091e-06
1.09102e-06
1.091e-06
1.09099e-06
1.09093e-06
1.09088e-06
1.09268e-06
1.09338e-06
1.09235e-06
1.09088e-06
1.09096e-06
1.09099e-06
1.09102e-06
1.09102e-06
1.09102e-06
1.09099e-06
1.09096e-06
1.09088e-06
1.09268e-06
1.0934e-06
1.0924e-06
1.09088e-06
1.09092e-06
1.09099e-06
1.091e-06
1.09102e-06
1.091e-06
1.09099e-06
1.09092e-06
1.09088e-06
1.09268e-06
1.0934e-06
1.09319e-06
1.09227e-06
1.09092e-06
1.09094e-06
1.09099e-06
1.09099e-06
1.09099e-06
1.09094e-06
1.09092e-06
1.09248e-06
1.09266e-06
1.09338e-06
1.09322e-06
1.09256e-06
1.09227e-06
1.09092e-06
1.09093e-06
1.09096e-06
1.09093e-06
1.09092e-06
1.09246e-06
1.0926e-06
1.09269e-06
1.09321e-06
1.09256e-06
1.09228e-06
1.09088e-06
1.09088e-06
1.09088e-06
1.09248e-06
1.0926e-06
1.09268e-06
1.09335e-06
1.09321e-06
1.09262e-06
1.09268e-06
1.09268e-06
1.09268e-06
1.09266e-06
1.09269e-06
1.09335e-06
1.09324e-06
1.09338e-06
1.0934e-06
1.0934e-06
1.09338e-06
1.08385e-06
1.08305e-06
1.08299e-06
1.08304e-06
1.08384e-06
1.08388e-06
1.08387e-06
1.08317e-06
1.08273e-06
1.08148e-06
1.08148e-06
1.08148e-06
1.08288e-06
1.08318e-06
1.08386e-06
1.08317e-06
1.0827e-06
1.0815e-06
1.08152e-06
1.08153e-06
1.08152e-06
1.0815e-06
1.08287e-06
1.08318e-06
1.08386e-06
1.08385e-06
1.08273e-06
1.0815e-06
1.08153e-06
1.08156e-06
1.08156e-06
1.08156e-06
1.08153e-06
1.0815e-06
1.08288e-06
1.08326e-06
1.0839e-06
1.08305e-06
1.08148e-06
1.08152e-06
1.08156e-06
1.08157e-06
1.08159e-06
1.08157e-06
1.08156e-06
1.08152e-06
1.08148e-06
1.08331e-06
1.08404e-06
1.08299e-06
1.08148e-06
1.08153e-06
1.08156e-06
1.08159e-06
1.08159e-06
1.08159e-06
1.08156e-06
1.08153e-06
1.08148e-06
1.0833e-06
1.08405e-06
1.08304e-06
1.08148e-06
1.08152e-06
1.08156e-06
1.08157e-06
1.08159e-06
1.08157e-06
1.08156e-06
1.08152e-06
1.08148e-06
1.0833e-06
1.08405e-06
1.08384e-06
1.08288e-06
1.0815e-06
1.08153e-06
1.08156e-06
1.08156e-06
1.08156e-06
1.08153e-06
1.0815e-06
1.08309e-06
1.0833e-06
1.08403e-06
1.08388e-06
1.08318e-06
1.08286e-06
1.0815e-06
1.08152e-06
1.08153e-06
1.08152e-06
1.0815e-06
1.08307e-06
1.08323e-06
1.08335e-06
1.08386e-06
1.08318e-06
1.08288e-06
1.08148e-06
1.08148e-06
1.08148e-06
1.08309e-06
1.08323e-06
1.08332e-06
1.08401e-06
1.08386e-06
1.08326e-06
1.08331e-06
1.0833e-06
1.0833e-06
1.0833e-06
1.08335e-06
1.08401e-06
1.0839e-06
1.08404e-06
1.08405e-06
1.08405e-06
1.08403e-06
1.0745e-06
1.0737e-06
1.07363e-06
1.07368e-06
1.07449e-06
1.07453e-06
1.07452e-06
1.07381e-06
1.07337e-06
1.07211e-06
1.07211e-06
1.07211e-06
1.07352e-06
1.07383e-06
1.07451e-06
1.07381e-06
1.07333e-06
1.07212e-06
1.07213e-06
1.07214e-06
1.07213e-06
1.07212e-06
1.0735e-06
1.07382e-06
1.07452e-06
1.0745e-06
1.07337e-06
1.07212e-06
1.07214e-06
1.07216e-06
1.07216e-06
1.07216e-06
1.07214e-06
1.07212e-06
1.07352e-06
1.07391e-06
1.07455e-06
1.0737e-06
1.07211e-06
1.07213e-06
1.07216e-06
1.07217e-06
1.07218e-06
1.07217e-06
1.07216e-06
1.07213e-06
1.07211e-06
1.07395e-06
1.07469e-06
1.07363e-06
1.07211e-06
1.07214e-06
1.07216e-06
1.07218e-06
1.07218e-06
1.07218e-06
1.07216e-06
1.07214e-06
1.07211e-06
1.07394e-06
1.0747e-06
1.07368e-06
1.07211e-06
1.07213e-06
1.07216e-06
1.07217e-06
1.07218e-06
1.07217e-06
1.07216e-06
1.07213e-06
1.07211e-06
1.07395e-06
1.0747e-06
1.07449e-06
1.07352e-06
1.07212e-06
1.07214e-06
1.07216e-06
1.07216e-06
1.07216e-06
1.07214e-06
1.07212e-06
1.07373e-06
1.07395e-06
1.07468e-06
1.07453e-06
1.07383e-06
1.0735e-06
1.07212e-06
1.07213e-06
1.07214e-06
1.07213e-06
1.07212e-06
1.0737e-06
1.07387e-06
1.074e-06
1.07451e-06
1.07382e-06
1.07352e-06
1.07211e-06
1.07211e-06
1.07211e-06
1.07373e-06
1.07387e-06
1.07397e-06
1.07466e-06
1.07452e-06
1.07391e-06
1.07395e-06
1.07394e-06
1.07395e-06
1.07395e-06
1.074e-06
1.07466e-06
1.07455e-06
1.07469e-06
1.0747e-06
1.0747e-06
1.07468e-06
1.06515e-06
1.06435e-06
1.06428e-06
1.06433e-06
1.06514e-06
1.06518e-06
1.06517e-06
1.06446e-06
1.06401e-06
1.06275e-06
1.06275e-06
1.06275e-06
1.06416e-06
1.06447e-06
1.06516e-06
1.06446e-06
1.06398e-06
1.06275e-06
1.06276e-06
1.06276e-06
1.06276e-06
1.06275e-06
1.06414e-06
1.06447e-06
1.06517e-06
1.06515e-06
1.06401e-06
1.06275e-06
1.06276e-06
1.06277e-06
1.06278e-06
1.06277e-06
1.06276e-06
1.06275e-06
1.06416e-06
1.06455e-06
1.0652e-06
1.06435e-06
1.06275e-06
1.06276e-06
1.06278e-06
1.06278e-06
1.06279e-06
1.06278e-06
1.06278e-06
1.06276e-06
1.06275e-06
1.0646e-06
1.06534e-06
1.06428e-06
1.06275e-06
1.06276e-06
1.06278e-06
1.06279e-06
1.06279e-06
1.06279e-06
1.06278e-06
1.06276e-06
1.06275e-06
1.06459e-06
1.06535e-06
1.06433e-06
1.06275e-06
1.06276e-06
1.06277e-06
1.06278e-06
1.06279e-06
1.06278e-06
1.06277e-06
1.06276e-06
1.06275e-06
1.06459e-06
1.06535e-06
1.06514e-06
1.06416e-06
1.06275e-06
1.06276e-06
1.06278e-06
1.06278e-06
1.06278e-06
1.06276e-06
1.06275e-06
1.06437e-06
1.0646e-06
1.06533e-06
1.06518e-06
1.06447e-06
1.06414e-06
1.06275e-06
1.06276e-06
1.06276e-06
1.06276e-06
1.06275e-06
1.06434e-06
1.06452e-06
1.06465e-06
1.06516e-06
1.06447e-06
1.06416e-06
1.06275e-06
1.06275e-06
1.06275e-06
1.06437e-06
1.06452e-06
1.06462e-06
1.06531e-06
1.06517e-06
1.06455e-06
1.0646e-06
1.06459e-06
1.06459e-06
1.0646e-06
1.06465e-06
1.06531e-06
1.0652e-06
1.06534e-06
1.06535e-06
1.06535e-06
1.06533e-06
1.0558e-06
1.05499e-06
1.05493e-06
1.05498e-06
1.05579e-06
1.05583e-06
1.05582e-06
1.05511e-06
1.05466e-06
1.05339e-06
1.05339e-06
1.05339e-06
1.05481e-06
1.05512e-06
1.05581e-06
1.05511e-06
1.05462e-06
1.0534e-06
1.0534e-06
1.0534e-06
1.0534e-06
1.0534e-06
1.05478e-06
1.05512e-06
1.05582e-06
1.0558e-06
1.05466e-06
1.0534e-06
1.0534e-06
1.05341e-06
1.05341e-06
1.05341e-06
1.0534e-06
1.0534e-06
1.05481e-06
1.0552e-06
1.05585e-06
1.05499e-06
1.05339e-06
1.0534e-06
1.05341e-06
1.05341e-06
1.05341e-06
1.05341e-06
1.05341e-06
1.0534e-06
1.05339e-06
1.05525e-06
1.05598e-06
1.05493e-06
1.05339e-06
1.0534e-06
1.05341e-06
1.05341e-06
1.05342e-06
1.05341e-06
1.05341e-06
1.0534e-06
1.05339e-06
1.05523e-06
1.056e-06
1.05498e-06
1.05339e-06
1.0534e-06
1.05341e-06
1.05341e-06
1.05342e-06
1.05341e-06
1.05341e-06
1.0534e-06
1.05339e-06
1.05524e-06
1.056e-06
1.05579e-06
1.05481e-06
1.0534e-06
1.0534e-06
1.05341e-06
1.05341e-06
1.05341e-06
1.0534e-06
1.0534e-06
1.05502e-06
1.05525e-06
1.05598e-06
1.05583e-06
1.05512e-06
1.05478e-06
1.0534e-06
1.0534e-06
1.0534e-06
1.0534e-06
1.0534e-06
1.05499e-06
1.05516e-06
1.0553e-06
1.05581e-06
1.05512e-06
1.05481e-06
1.05339e-06
1.05339e-06
1.05339e-06
1.05502e-06
1.05516e-06
1.05527e-06
1.05596e-06
1.05582e-06
1.0552e-06
1.05525e-06
1.05523e-06
1.05524e-06
1.05525e-06
1.0553e-06
1.05596e-06
1.05585e-06
1.05598e-06
1.056e-06
1.056e-06
1.05598e-06
1.04644e-06
1.04564e-06
1.04558e-06
1.04563e-06
1.04644e-06
1.04647e-06
1.04647e-06
1.04576e-06
1.0453e-06
1.04404e-06
1.04404e-06
1.04404e-06
1.04545e-06
1.04577e-06
1.04646e-06
1.04576e-06
1.04527e-06
1.04404e-06
1.04404e-06
1.04404e-06
1.04404e-06
1.04404e-06
1.04543e-06
1.04577e-06
1.04646e-06
1.04644e-06
1.0453e-06
1.04404e-06
1.04404e-06
1.04405e-06
1.04405e-06
1.04405e-06
1.04404e-06
1.04404e-06
1.04545e-06
1.04585e-06
1.04649e-06
1.04564e-06
1.04404e-06
1.04404e-06
1.04405e-06
1.04405e-06
1.04405e-06
1.04405e-06
1.04405e-06
1.04404e-06
1.04404e-06
1.04589e-06
1.04663e-06
1.04558e-06
1.04404e-06
1.04404e-06
1.04405e-06
1.04405e-06
1.04405e-06
1.04405e-06
1.04405e-06
1.04404e-06
1.04404e-06
1.04588e-06
1.04664e-06
1.04563e-06
1.04404e-06
1.04404e-06
1.04405e-06
1.04405e-06
1.04405e-06
1.04405e-06
1.04405e-06
1.04404e-06
1.04404e-06
1.04589e-06
1.04664e-06
1.04644e-06
1.04545e-06
1.04404e-06
1.04404e-06
1.04405e-06
1.04405e-06
1.04405e-06
1.04404e-06
1.04404e-06
1.04567e-06
1.04589e-06
1.04663e-06
1.04647e-06
1.04577e-06
1.04543e-06
1.04404e-06
1.04404e-06
1.04404e-06
1.04404e-06
1.04404e-06
1.04563e-06
1.04581e-06
1.04594e-06
1.04646e-06
1.04577e-06
1.04545e-06
1.04404e-06
1.04404e-06
1.04404e-06
1.04567e-06
1.04581e-06
1.04592e-06
1.04661e-06
1.04646e-06
1.04585e-06
1.04589e-06
1.04588e-06
1.04589e-06
1.04589e-06
1.04594e-06
1.04661e-06
1.04649e-06
1.04663e-06
1.04664e-06
1.04664e-06
1.04663e-06
1.03709e-06
1.03629e-06
1.03622e-06
1.03627e-06
1.03709e-06
1.03712e-06
1.03711e-06
1.0364e-06
1.03595e-06
1.03468e-06
1.03468e-06
1.03468e-06
1.0361e-06
1.03642e-06
1.03711e-06
1.0364e-06
1.03592e-06
1.03468e-06
1.03469e-06
1.03469e-06
1.03469e-06
1.03468e-06
1.03608e-06
1.03641e-06
1.03711e-06
1.03709e-06
1.03595e-06
1.03468e-06
1.03469e-06
1.03469e-06
1.03469e-06
1.03469e-06
1.03469e-06
1.03468e-06
1.0361e-06
1.0365e-06
1.03714e-06
1.03629e-06
1.03468e-06
1.03469e-06
1.03469e-06
1.03469e-06
1.03469e-06
1.03469e-06
1.03469e-06
1.03469e-06
1.03468e-06
1.03654e-06
1.03728e-06
1.03622e-06
1.03468e-06
1.03469e-06
1.03469e-06
1.03469e-06
1.03469e-06
1.03469e-06
1.03469e-06
1.03469e-06
1.03468e-06
1.03653e-06
1.03729e-06
1.03627e-06
1.03468e-06
1.03469e-06
1.03469e-06
1.03469e-06
1.03469e-06
1.03469e-06
1.03469e-06
1.03469e-06
1.03468e-06
1.03653e-06
1.03729e-06
1.03709e-06
1.0361e-06
1.03468e-06
1.03469e-06
1.03469e-06
1.03469e-06
1.03469e-06
1.03469e-06
1.03468e-06
1.03631e-06
1.03654e-06
1.03727e-06
1.03712e-06
1.03642e-06
1.03608e-06
1.03468e-06
1.03469e-06
1.03469e-06
1.03469e-06
1.03468e-06
1.03628e-06
1.03646e-06
1.03659e-06
1.03711e-06
1.03641e-06
1.0361e-06
1.03468e-06
1.03468e-06
1.03468e-06
1.03631e-06
1.03646e-06
1.03657e-06
1.03726e-06
1.03711e-06
1.0365e-06
1.03654e-06
1.03653e-06
1.03653e-06
1.03654e-06
1.03659e-06
1.03726e-06
1.03714e-06
1.03728e-06
1.03729e-06
1.03729e-06
1.03727e-06
1.02774e-06
1.02694e-06
1.02687e-06
1.02692e-06
1.02773e-06
1.02777e-06
1.02776e-06
1.02705e-06
1.0266e-06
1.02533e-06
1.02533e-06
1.02533e-06
1.02675e-06
1.02706e-06
1.02775e-06
1.02705e-06
1.02656e-06
1.02533e-06
1.02533e-06
1.02533e-06
1.02533e-06
1.02533e-06
1.02672e-06
1.02706e-06
1.02776e-06
1.02774e-06
1.0266e-06
1.02533e-06
1.02533e-06
1.02533e-06
1.02533e-06
1.02533e-06
1.02533e-06
1.02533e-06
1.02675e-06
1.02714e-06
1.02779e-06
1.02694e-06
1.02533e-06
1.02533e-06
1.02533e-06
1.02533e-06
1.02533e-06
1.02533e-06
1.02533e-06
1.02533e-06
1.02533e-06
1.02719e-06
1.02793e-06
1.02687e-06
1.02533e-06
1.02533e-06
1.02533e-06
1.02533e-06
1.02534e-06
1.02533e-06
1.02533e-06
1.02533e-06
1.02533e-06
1.02718e-06
1.02794e-06
1.02692e-06
1.02533e-06
1.02533e-06
1.02533e-06
1.02533e-06
1.02533e-06
1.02533e-06
1.02533e-06
1.02533e-06
1.02533e-06
1.02718e-06
1.02794e-06
1.02773e-06
1.02675e-06
1.02533e-06
1.02533e-06
1.02533e-06
1.02533e-06
1.02533e-06
1.02533e-06
1.02533e-06
1.02696e-06
1.02719e-06
1.02792e-06
1.02777e-06
1.02706e-06
1.02672e-06
1.02533e-06
1.02533e-06
1.02533e-06
1.02533e-06
1.02533e-06
1.02693e-06
1.02711e-06
1.02724e-06
1.02775e-06
1.02706e-06
1.02675e-06
1.02533e-06
1.02533e-06
1.02533e-06
1.02696e-06
1.02711e-06
1.02722e-06
1.0279e-06
1.02776e-06
1.02714e-06
1.02719e-06
1.02718e-06
1.02718e-06
1.02719e-06
1.02724e-06
1.0279e-06
1.02779e-06
1.02793e-06
1.02794e-06
1.02794e-06
1.02792e-06
1.01839e-06
1.01758e-06
1.01752e-06
1.01757e-06
1.01838e-06
1.01842e-06
1.01841e-06
1.0177e-06
1.01724e-06
1.01598e-06
1.01598e-06
1.01598e-06
1.01739e-06
1.01771e-06
1.0184e-06
1.0177e-06
1.01721e-06
1.01598e-06
1.01598e-06
1.01598e-06
1.01598e-06
1.01598e-06
1.01737e-06
1.01771e-06
1.01841e-06
1.01838e-06
1.01724e-06
1.01598e-06
1.01598e-06
1.01598e-06
1.01598e-06
1.01598e-06
1.01598e-06
1.01598e-06
1.0174e-06
1.01779e-06
1.01844e-06
1.01758e-06
1.01598e-06
1.01598e-06
1.01598e-06
1.01598e-06
1.01598e-06
1.01598e-06
1.01598e-06
1.01598e-06
1.01598e-06
1.01784e-06
1.01857e-06
1.01752e-06
1.01598e-06
1.01598e-06
1.01598e-06
1.01598e-06
1.01598e-06
1.01598e-06
1.01598e-06
1.01598e-06
1.01598e-06
1.01782e-06
1.01858e-06
1.01757e-06
1.01598e-06
1.01598e-06
1.01598e-06
1.01598e-06
1.01598e-06
1.01598e-06
1.01598e-06
1.01598e-06
1.01598e-06
1.01783e-06
1.01859e-06
1.01838e-06
1.01739e-06
1.01598e-06
1.01598e-06
1.01598e-06
1.01598e-06
1.01598e-06
1.01598e-06
1.01598e-06
1.01761e-06
1.01783e-06
1.01857e-06
1.01842e-06
1.01771e-06
1.01737e-06
1.01598e-06
1.01598e-06
1.01598e-06
1.01598e-06
1.01598e-06
1.01757e-06
1.01775e-06
1.01789e-06
1.0184e-06
1.01771e-06
1.0174e-06
1.01598e-06
1.01598e-06
1.01598e-06
1.01761e-06
1.01775e-06
1.01786e-06
1.01855e-06
1.01841e-06
1.01779e-06
1.01784e-06
1.01782e-06
1.01783e-06
1.01783e-06
1.01789e-06
1.01855e-06
1.01844e-06
1.01857e-06
1.01858e-06
1.01859e-06
1.01857e-06
1.00903e-06
1.00823e-06
1.00817e-06
1.00821e-06
1.00903e-06
1.00906e-06
1.00906e-06
1.00834e-06
1.00789e-06
1.00662e-06
1.00663e-06
1.00662e-06
1.00804e-06
1.00836e-06
1.00905e-06
1.00834e-06
1.00786e-06
1.00663e-06
1.00663e-06
1.00663e-06
1.00663e-06
1.00663e-06
1.00802e-06
1.00835e-06
1.00905e-06
1.00903e-06
1.00789e-06
1.00663e-06
1.00663e-06
1.00663e-06
1.00663e-06
1.00663e-06
1.00663e-06
1.00663e-06
1.00804e-06
1.00844e-06
1.00908e-06
1.00823e-06
1.00662e-06
1.00663e-06
1.00663e-06
1.00663e-06
1.00663e-06
1.00663e-06
1.00663e-06
1.00663e-06
1.00662e-06
1.00848e-06
1.00922e-06
1.00817e-06
1.00662e-06
1.00663e-06
1.00663e-06
1.00663e-06
1.00663e-06
1.00663e-06
1.00663e-06
1.00663e-06
1.00663e-06
1.00847e-06
1.00923e-06
1.00821e-06
1.00662e-06
1.00663e-06
1.00663e-06
1.00663e-06
1.00663e-06
1.00663e-06
1.00663e-06
1.00663e-06
1.00662e-06
1.00847e-06
1.00923e-06
1.00903e-06
1.00804e-06
1.00663e-06
1.00663e-06
1.00663e-06
1.00663e-06
1.00663e-06
1.00663e-06
1.00663e-06
1.00825e-06
1.00848e-06
1.00922e-06
1.00906e-06
1.00836e-06
1.00802e-06
1.00663e-06
1.00663e-06
1.00663e-06
1.00663e-06
1.00663e-06
1.00822e-06
1.0084e-06
1.00853e-06
1.00905e-06
1.00835e-06
1.00804e-06
1.00662e-06
1.00663e-06
1.00662e-06
1.00825e-06
1.0084e-06
1.00851e-06
1.0092e-06
1.00905e-06
1.00844e-06
1.00848e-06
1.00847e-06
1.00847e-06
1.00848e-06
1.00853e-06
1.0092e-06
1.00908e-06
1.00922e-06
1.00923e-06
1.00923e-06
1.00922e-06
9.99679e-07
9.98878e-07
9.98813e-07
9.98861e-07
9.99676e-07
9.99711e-07
9.99702e-07
9.98992e-07
9.98539e-07
9.97272e-07
9.97272e-07
9.97272e-07
9.98689e-07
9.99004e-07
9.99696e-07
9.98992e-07
9.98504e-07
9.97272e-07
9.97273e-07
9.97273e-07
9.97273e-07
9.97272e-07
9.98666e-07
9.99001e-07
9.997e-07
9.99679e-07
9.98539e-07
9.97272e-07
9.97273e-07
9.97272e-07
9.97273e-07
9.97272e-07
9.97273e-07
9.97272e-07
9.9869e-07
9.99086e-07
9.9973e-07
9.98878e-07
9.97272e-07
9.97273e-07
9.97272e-07
9.97273e-07
9.97273e-07
9.97273e-07
9.97273e-07
9.97273e-07
9.97272e-07
9.9913e-07
9.99868e-07
9.98812e-07
9.97272e-07
9.97273e-07
9.97273e-07
9.97273e-07
9.97273e-07
9.97273e-07
9.97273e-07
9.97273e-07
9.97272e-07
9.99117e-07
9.99879e-07
9.98861e-07
9.97272e-07
9.97273e-07
9.97272e-07
9.97273e-07
9.97273e-07
9.97273e-07
9.97273e-07
9.97273e-07
9.97272e-07
9.99122e-07
9.9988e-07
9.99676e-07
9.98689e-07
9.97272e-07
9.97273e-07
9.97272e-07
9.97273e-07
9.97272e-07
9.97273e-07
9.97272e-07
9.98901e-07
9.99129e-07
9.99863e-07
9.99711e-07
9.99004e-07
9.98665e-07
9.97272e-07
9.97273e-07
9.97273e-07
9.97273e-07
9.97272e-07
9.98867e-07
9.99048e-07
9.99181e-07
9.99696e-07
9.99001e-07
9.9869e-07
9.97272e-07
9.97272e-07
9.97272e-07
9.98901e-07
9.99048e-07
9.99157e-07
9.99847e-07
9.997e-07
9.99086e-07
9.9913e-07
9.99117e-07
9.99122e-07
9.99129e-07
9.99181e-07
9.99846e-07
9.9973e-07
9.99868e-07
9.99879e-07
9.9988e-07
9.99863e-07
9.90327e-07
9.89525e-07
9.8946e-07
9.89508e-07
9.90323e-07
9.90358e-07
9.9035e-07
9.89639e-07
9.89186e-07
9.87919e-07
9.87919e-07
9.87919e-07
9.89336e-07
9.89651e-07
9.90343e-07
9.89639e-07
9.89151e-07
9.87919e-07
9.8792e-07
9.8792e-07
9.8792e-07
9.87919e-07
9.89313e-07
9.89649e-07
9.90347e-07
9.90327e-07
9.89186e-07
9.87919e-07
9.8792e-07
9.87919e-07
9.8792e-07
9.87919e-07
9.8792e-07
9.87919e-07
9.89337e-07
9.89734e-07
9.90377e-07
9.89525e-07
9.87919e-07
9.8792e-07
9.87919e-07
9.87921e-07
9.8792e-07
9.87921e-07
9.87919e-07
9.8792e-07
9.87919e-07
9.89777e-07
9.90515e-07
9.8946e-07
9.87919e-07
9.8792e-07
9.8792e-07
9.8792e-07
9.8792e-07
9.8792e-07
9.8792e-07
9.8792e-07
9.87919e-07
9.89764e-07
9.90526e-07
9.89508e-07
9.87919e-07
9.8792e-07
9.87919e-07
9.87921e-07
9.8792e-07
9.87921e-07
9.87919e-07
9.8792e-07
9.87919e-07
9.89769e-07
9.90527e-07
9.90323e-07
9.89336e-07
9.87919e-07
9.8792e-07
9.87919e-07
9.8792e-07
9.87919e-07
9.8792e-07
9.87919e-07
9.89548e-07
9.89777e-07
9.9051e-07
9.90358e-07
9.89651e-07
9.89313e-07
9.87919e-07
9.8792e-07
9.8792e-07
9.8792e-07
9.87919e-07
9.89514e-07
9.89695e-07
9.89828e-07
9.90343e-07
9.89649e-07
9.89337e-07
9.87919e-07
9.87919e-07
9.87919e-07
9.89548e-07
9.89695e-07
9.89804e-07
9.90494e-07
9.90347e-07
9.89734e-07
9.89777e-07
9.89764e-07
9.89769e-07
9.89777e-07
9.89828e-07
9.90494e-07
9.90377e-07
9.90515e-07
9.90526e-07
9.90527e-07
9.9051e-07
9.80974e-07
9.80172e-07
9.80107e-07
9.80155e-07
9.8097e-07
9.81005e-07
9.80997e-07
9.80286e-07
9.79834e-07
9.78566e-07
9.78567e-07
9.78566e-07
9.79983e-07
9.80298e-07
9.80991e-07
9.80286e-07
9.79798e-07
9.78566e-07
9.78568e-07
9.78567e-07
9.78568e-07
9.78566e-07
9.7996e-07
9.80296e-07
9.80994e-07
9.80974e-07
9.79834e-07
9.78566e-07
9.78567e-07
9.78567e-07
9.78567e-07
9.78567e-07
9.78567e-07
9.78566e-07
9.79985e-07
9.80381e-07
9.81024e-07
9.80172e-07
9.78566e-07
9.78568e-07
9.78567e-07
9.78568e-07
9.78567e-07
9.78568e-07
9.78566e-07
9.78568e-07
9.78566e-07
9.80424e-07
9.81162e-07
9.80107e-07
9.78567e-07
9.78567e-07
9.78567e-07
9.78567e-07
9.78567e-07
9.78567e-07
9.78567e-07
9.78567e-07
9.78567e-07
9.80411e-07
9.81174e-07
9.80155e-07
9.78566e-07
9.78568e-07
9.78567e-07
9.78568e-07
9.78567e-07
9.78568e-07
9.78567e-07
9.78568e-07
9.78566e-07
9.80416e-07
9.81174e-07
9.8097e-07
9.79983e-07
9.78566e-07
9.78567e-07
9.78567e-07
9.78567e-07
9.78567e-07
9.78567e-07
9.78566e-07
9.80195e-07
9.80424e-07
9.81158e-07
9.81005e-07
9.80298e-07
9.7996e-07
9.78566e-07
9.78568e-07
9.78567e-07
9.78568e-07
9.78566e-07
9.80162e-07
9.80342e-07
9.80476e-07
9.80991e-07
9.80296e-07
9.79985e-07
9.78566e-07
9.78567e-07
9.78566e-07
9.80195e-07
9.80342e-07
9.80451e-07
9.81141e-07
9.80994e-07
9.80381e-07
9.80424e-07
9.80411e-07
9.80416e-07
9.80424e-07
9.80476e-07
9.81141e-07
9.81024e-07
9.81162e-07
9.81174e-07
9.81174e-07
9.81158e-07
9.71621e-07
9.7082e-07
9.70754e-07
9.70803e-07
9.71617e-07
9.71652e-07
9.71644e-07
9.70933e-07
9.70481e-07
9.69213e-07
9.69214e-07
9.69213e-07
9.7063e-07
9.70946e-07
9.71638e-07
9.70934e-07
9.70445e-07
9.69214e-07
9.69215e-07
9.69214e-07
9.69215e-07
9.69214e-07
9.70607e-07
9.70943e-07
9.71641e-07
9.71621e-07
9.70481e-07
9.69214e-07
9.69214e-07
9.69214e-07
9.69214e-07
9.69214e-07
9.69214e-07
9.69214e-07
9.70632e-07
9.71028e-07
9.71671e-07
9.7082e-07
9.69213e-07
9.69215e-07
9.69214e-07
9.69215e-07
9.69214e-07
9.69215e-07
9.69214e-07
9.69215e-07
9.69213e-07
9.71071e-07
9.71809e-07
9.70754e-07
9.69214e-07
9.69214e-07
9.69214e-07
9.69214e-07
9.69214e-07
9.69214e-07
9.69214e-07
9.69214e-07
9.69214e-07
9.71059e-07
9.71821e-07
9.70803e-07
9.69213e-07
9.69215e-07
9.69214e-07
9.69215e-07
9.69214e-07
9.69215e-07
9.69214e-07
9.69215e-07
9.69213e-07
9.71063e-07
9.71821e-07
9.71617e-07
9.7063e-07
9.69214e-07
9.69214e-07
9.69214e-07
9.69214e-07
9.69214e-07
9.69214e-07
9.69214e-07
9.70842e-07
9.71071e-07
9.71805e-07
9.71652e-07
9.70946e-07
9.70607e-07
9.69214e-07
9.69215e-07
9.69214e-07
9.69215e-07
9.69214e-07
9.70809e-07
9.70989e-07
9.71123e-07
9.71638e-07
9.70943e-07
9.70632e-07
9.69213e-07
9.69214e-07
9.69213e-07
9.70842e-07
9.70989e-07
9.71098e-07
9.71788e-07
9.71641e-07
9.71028e-07
9.71071e-07
9.71059e-07
9.71063e-07
9.71071e-07
9.71123e-07
9.71788e-07
9.71671e-07
9.7181e-07
9.71821e-07
9.71822e-07
9.71805e-07
9.62268e-07
9.61467e-07
9.61401e-07
9.6145e-07
9.62264e-07
9.623e-07
9.62291e-07
9.61581e-07
9.61128e-07
9.5986e-07
9.59861e-07
9.5986e-07
9.61277e-07
9.61593e-07
9.62285e-07
9.61581e-07
9.61092e-07
9.59861e-07
9.59862e-07
9.59861e-07
9.59862e-07
9.59861e-07
9.61254e-07
9.6159e-07
9.62288e-07
9.62268e-07
9.61128e-07
9.59861e-07
9.59861e-07
9.59861e-07
9.59861e-07
9.59861e-07
9.59861e-07
9.59861e-07
9.61279e-07
9.61675e-07
9.62318e-07
9.61467e-07
9.5986e-07
9.59862e-07
9.59861e-07
9.59862e-07
9.59861e-07
9.59862e-07
9.59861e-07
9.59862e-07
9.5986e-07
9.61719e-07
9.62457e-07
9.61401e-07
9.59861e-07
9.59861e-07
9.59861e-07
9.59861e-07
9.59861e-07
9.59861e-07
9.59861e-07
9.59861e-07
9.59861e-07
9.61706e-07
9.62468e-07
9.6145e-07
9.5986e-07
9.59862e-07
9.59861e-07
9.59862e-07
9.59861e-07
9.59862e-07
9.59861e-07
9.59862e-07
9.5986e-07
9.61711e-07
9.62469e-07
9.62265e-07
9.61277e-07
9.59861e-07
9.59861e-07
9.59861e-07
9.59861e-07
9.59861e-07
9.59861e-07
9.59861e-07
9.6149e-07
9.61718e-07
9.62452e-07
9.623e-07
9.61593e-07
9.61254e-07
9.59861e-07
9.59862e-07
9.59861e-07
9.59862e-07
9.59861e-07
9.61456e-07
9.61637e-07
9.6177e-07
9.62285e-07
9.6159e-07
9.61279e-07
9.5986e-07
9.59861e-07
9.5986e-07
9.6149e-07
9.61637e-07
9.61746e-07
9.62435e-07
9.62288e-07
9.61675e-07
9.61719e-07
9.61706e-07
9.61711e-07
9.61718e-07
9.6177e-07
9.62435e-07
9.62318e-07
9.62457e-07
9.62468e-07
9.62469e-07
9.62452e-07
9.52915e-07
9.52114e-07
9.52048e-07
9.52097e-07
9.52912e-07
9.52947e-07
9.52938e-07
9.52228e-07
9.51775e-07
9.50508e-07
9.50508e-07
9.50508e-07
9.51925e-07
9.5224e-07
9.52932e-07
9.52228e-07
9.5174e-07
9.50508e-07
9.50509e-07
9.50508e-07
9.50509e-07
9.50508e-07
9.51902e-07
9.52238e-07
9.52936e-07
9.52915e-07
9.51775e-07
9.50508e-07
9.50509e-07
9.50508e-07
9.50508e-07
9.50508e-07
9.50509e-07
9.50508e-07
9.51926e-07
9.52322e-07
9.52966e-07
9.52114e-07
9.50508e-07
9.50509e-07
9.50508e-07
9.50509e-07
9.50508e-07
9.50509e-07
9.50508e-07
9.50509e-07
9.50508e-07
9.52366e-07
9.53104e-07
9.52048e-07
9.50508e-07
9.50508e-07
9.50508e-07
9.50508e-07
9.50508e-07
9.50508e-07
9.50508e-07
9.50508e-07
9.50508e-07
9.52353e-07
9.53115e-07
9.52097e-07
9.50508e-07
9.50509e-07
9.50508e-07
9.50509e-07
9.50508e-07
9.50509e-07
9.50508e-07
9.50509e-07
9.50508e-07
9.52358e-07
9.53116e-07
9.52912e-07
9.51925e-07
9.50508e-07
9.50509e-07
9.50508e-07
9.50508e-07
9.50508e-07
9.50509e-07
9.50508e-07
9.52137e-07
9.52365e-07
9.53099e-07
9.52947e-07
9.5224e-07
9.51902e-07
9.50508e-07
9.50509e-07
9.50508e-07
9.50509e-07
9.50508e-07
9.52103e-07
9.52284e-07
9.52417e-07
9.52932e-07
9.52238e-07
9.51926e-07
9.50508e-07
9.50508e-07
9.50508e-07
9.52137e-07
9.52284e-07
9.52393e-07
9.53083e-07
9.52936e-07
9.52322e-07
9.52366e-07
9.52353e-07
9.52358e-07
9.52365e-07
9.52417e-07
9.53082e-07
9.52966e-07
9.53104e-07
9.53115e-07
9.53116e-07
9.53099e-07
9.43563e-07
9.42761e-07
9.42696e-07
9.42744e-07
9.43559e-07
9.43594e-07
9.43586e-07
9.42875e-07
9.42422e-07
9.41155e-07
9.41155e-07
9.41155e-07
9.42572e-07
9.42887e-07
9.43579e-07
9.42875e-07
9.42387e-07
9.41155e-07
9.41156e-07
9.41155e-07
9.41156e-07
9.41155e-07
9.42549e-07
9.42885e-07
9.43583e-07
9.43562e-07
9.42422e-07
9.41155e-07
9.41156e-07
9.41155e-07
9.41156e-07
9.41155e-07
9.41156e-07
9.41155e-07
9.42574e-07
9.4297e-07
9.43613e-07
9.42761e-07
9.41155e-07
9.41156e-07
9.41155e-07
9.41156e-07
9.41155e-07
9.41156e-07
9.41155e-07
9.41156e-07
9.41155e-07
9.43013e-07
9.43751e-07
9.42696e-07
9.41155e-07
9.41155e-07
9.41156e-07
9.41155e-07
9.41156e-07
9.41155e-07
9.41156e-07
9.41155e-07
9.41155e-07
9.43e-07
9.43762e-07
9.42744e-07
9.41155e-07
9.41156e-07
9.41155e-07
9.41156e-07
9.41155e-07
9.41156e-07
9.41155e-07
9.41156e-07
9.41155e-07
9.43005e-07
9.43763e-07
9.43559e-07
9.42572e-07
9.41155e-07
9.41156e-07
9.41155e-07
9.41156e-07
9.41155e-07
9.41156e-07
9.41155e-07
9.42784e-07
9.43013e-07
9.43746e-07
9.43594e-07
9.42887e-07
9.42549e-07
9.41155e-07
9.41156e-07
9.41155e-07
9.41156e-07
9.41155e-07
9.4275e-07
9.42931e-07
9.43064e-07
9.43579e-07
9.42885e-07
9.42573e-07
9.41155e-07
9.41155e-07
9.41155e-07
9.42784e-07
9.42931e-07
9.4304e-07
9.4373e-07
9.43583e-07
9.4297e-07
9.43013e-07
9.43e-07
9.43005e-07
9.43013e-07
9.43064e-07
9.4373e-07
9.43613e-07
9.43751e-07
9.43762e-07
9.43763e-07
9.43746e-07
9.3421e-07
9.33408e-07
9.33343e-07
9.33391e-07
9.34206e-07
9.34241e-07
9.34233e-07
9.33522e-07
9.33069e-07
9.31802e-07
9.31803e-07
9.31802e-07
9.33219e-07
9.33534e-07
9.34227e-07
9.33522e-07
9.33034e-07
9.31802e-07
9.31804e-07
9.31803e-07
9.31804e-07
9.31802e-07
9.33196e-07
9.33532e-07
9.3423e-07
9.3421e-07
9.33069e-07
9.31802e-07
9.31803e-07
9.31802e-07
9.31803e-07
9.31802e-07
9.31803e-07
9.31802e-07
9.33221e-07
9.33617e-07
9.3426e-07
9.33408e-07
9.31802e-07
9.31804e-07
9.31802e-07
9.31803e-07
9.31802e-07
9.31803e-07
9.31802e-07
9.31804e-07
9.31802e-07
9.3366e-07
9.34398e-07
9.33343e-07
9.31802e-07
9.31803e-07
9.31803e-07
9.31802e-07
9.31803e-07
9.31802e-07
9.31803e-07
9.31803e-07
9.31803e-07
9.33647e-07
9.3441e-07
9.33391e-07
9.31802e-07
9.31804e-07
9.31802e-07
9.31803e-07
9.31802e-07
9.31803e-07
9.31802e-07
9.31804e-07
9.31802e-07
9.33652e-07
9.3441e-07
9.34206e-07
9.33219e-07
9.31802e-07
9.31803e-07
9.31802e-07
9.31803e-07
9.31802e-07
9.31803e-07
9.31802e-07
9.33431e-07
9.3366e-07
9.34394e-07
9.34241e-07
9.33534e-07
9.33196e-07
9.31802e-07
9.31804e-07
9.31803e-07
9.31804e-07
9.31802e-07
9.33398e-07
9.33578e-07
9.33712e-07
9.34226e-07
9.33532e-07
9.33221e-07
9.31802e-07
9.31802e-07
9.31802e-07
9.33431e-07
9.33578e-07
9.33687e-07
9.34377e-07
9.3423e-07
9.33617e-07
9.3366e-07
9.33647e-07
9.33652e-07
9.3366e-07
9.33712e-07
9.34377e-07
9.3426e-07
9.34398e-07
9.34409e-07
9.3441e-07
9.34394e-07
9.24857e-07
9.24055e-07
9.2399e-07
9.24039e-07
9.24853e-07
9.24888e-07
9.2488e-07
9.24169e-07
9.23717e-07
9.22449e-07
9.2245e-07
9.22449e-07
9.23866e-07
9.24181e-07
9.24874e-07
9.24169e-07
9.23681e-07
9.22449e-07
9.22451e-07
9.2245e-07
9.22451e-07
9.22449e-07
9.23843e-07
9.24179e-07
9.24877e-07
9.24857e-07
9.23717e-07
9.22449e-07
9.2245e-07
9.22449e-07
9.2245e-07
9.22449e-07
9.2245e-07
9.22449e-07
9.23868e-07
9.24264e-07
9.24907e-07
9.24055e-07
9.22449e-07
9.22451e-07
9.22449e-07
9.22451e-07
9.2245e-07
9.22451e-07
9.22449e-07
9.22451e-07
9.22449e-07
9.24307e-07
9.25045e-07
9.2399e-07
9.2245e-07
9.2245e-07
9.2245e-07
9.2245e-07
9.2245e-07
9.2245e-07
9.2245e-07
9.2245e-07
9.2245e-07
9.24294e-07
9.25057e-07
9.24039e-07
9.22449e-07
9.22451e-07
9.22449e-07
9.22451e-07
9.2245e-07
9.22451e-07