/*--------------------------------*- C++ -*----------------------------------*\
| =========                 |                                                 |
| \\      /  F ield         | OpenFOAM: The Open Source CFD Toolbox           |
|  \\    /   O peration     | Version:  v2012                                 |
|   \\  /    A nd           | Website:  www.openfoam.com                      |
|    \\/     M anipulation  |                                                 |
\*---------------------------------------------------------------------------*/
FoamFile
{
    version     2.0;
    format      ascii;
    class       volScalarField;
    location    "75";
    object      p;
}
// * * * * * * * * * * * * * * * * * * * * * * * * * * * * * * * * * * * * * //

dimensions      [0 2 -2 0 0 0 0];


internalField   nonuniform List<scalar> 
292667
(
1.03512e-06
1.02626e-06
1.0256e-06
1.02566e-06
1.02653e-06
1.03597e-06
1.02646e-06
1.02424e-06
1.02292e-06
1.02238e-06
1.02244e-06
1.02315e-06
1.02466e-06
1.02708e-06
1.02646e-06
1.02359e-06
1.02177e-06
1.02077e-06
1.02034e-06
1.0204e-06
1.02095e-06
1.02211e-06
1.02415e-06
1.02723e-06
1.03512e-06
1.02424e-06
1.02177e-06
1.0203e-06
1.01947e-06
1.01912e-06
1.01916e-06
1.01962e-06
1.02058e-06
1.02225e-06
1.025e-06
1.03456e-06
1.02626e-06
1.02292e-06
1.02077e-06
1.01947e-06
1.01873e-06
1.01842e-06
1.01846e-06
1.01887e-06
1.01973e-06
1.0212e-06
1.02363e-06
1.02954e-06
1.0256e-06
1.02238e-06
1.02034e-06
1.01912e-06
1.01842e-06
1.01811e-06
1.01815e-06
1.01855e-06
1.01936e-06
1.02076e-06
1.02306e-06
1.02804e-06
1.02566e-06
1.02244e-06
1.0204e-06
1.01916e-06
1.01846e-06
1.01815e-06
1.0182e-06
1.01859e-06
1.01941e-06
1.02082e-06
1.02314e-06
1.02834e-06
1.02653e-06
1.02315e-06
1.02095e-06
1.01962e-06
1.01887e-06
1.01855e-06
1.01859e-06
1.01902e-06
1.01989e-06
1.0214e-06
1.0239e-06
1.02982e-06
1.03597e-06
1.02466e-06
1.02211e-06
1.02058e-06
1.01973e-06
1.01936e-06
1.01941e-06
1.01989e-06
1.02089e-06
1.02264e-06
1.02548e-06
1.0344e-06
1.02708e-06
1.02415e-06
1.02225e-06
1.0212e-06
1.02076e-06
1.02082e-06
1.0214e-06
1.02264e-06
1.02479e-06
1.03049e-06
1.02723e-06
1.025e-06
1.02363e-06
1.02306e-06
1.02314e-06
1.0239e-06
1.02548e-06
1.03049e-06
1.03456e-06
1.02954e-06
1.02804e-06
1.02834e-06
1.02982e-06
1.0344e-06
1.01157e-06
1.01095e-06
1.01092e-06
1.01098e-06
1.01161e-06
1.01147e-06
1.01159e-06
1.01112e-06
1.0108e-06
1.0097e-06
1.00968e-06
1.0097e-06
1.01096e-06
1.01119e-06
1.01165e-06
1.01112e-06
1.01078e-06
1.00973e-06
1.00969e-06
1.00973e-06
1.00969e-06
1.00973e-06
1.01095e-06
1.01118e-06
1.01164e-06
1.01157e-06
1.0108e-06
1.00973e-06
1.00967e-06
1.0097e-06
1.00968e-06
1.0097e-06
1.00967e-06
1.00973e-06
1.01095e-06
1.01121e-06
1.01165e-06
1.01095e-06
1.0097e-06
1.00969e-06
1.0097e-06
1.00966e-06
1.00966e-06
1.00966e-06
1.0097e-06
1.00969e-06
1.0097e-06
1.01137e-06
1.01183e-06
1.01092e-06
1.00968e-06
1.00973e-06
1.00968e-06
1.00966e-06
1.00965e-06
1.00966e-06
1.00968e-06
1.00973e-06
1.00968e-06
1.01139e-06
1.01178e-06
1.01098e-06
1.0097e-06
1.00969e-06
1.0097e-06
1.00966e-06
1.00966e-06
1.00966e-06
1.0097e-06
1.00969e-06
1.0097e-06
1.01139e-06
1.0118e-06
1.01161e-06
1.01096e-06
1.00973e-06
1.00967e-06
1.0097e-06
1.00968e-06
1.0097e-06
1.00967e-06
1.00973e-06
1.01115e-06
1.01128e-06
1.01179e-06
1.01147e-06
1.01119e-06
1.01095e-06
1.00973e-06
1.00969e-06
1.00973e-06
1.00969e-06
1.00973e-06
1.01112e-06
1.01125e-06
1.01124e-06
1.01165e-06
1.01118e-06
1.01095e-06
1.0097e-06
1.00968e-06
1.0097e-06
1.01115e-06
1.01125e-06
1.01127e-06
1.01174e-06
1.01164e-06
1.01121e-06
1.01137e-06
1.01139e-06
1.01139e-06
1.01128e-06
1.01124e-06
1.01174e-06
1.01165e-06
1.01183e-06
1.01178e-06
1.0118e-06
1.01179e-06
1.00297e-06
1.00229e-06
1.00224e-06
1.00228e-06
1.00299e-06
1.003e-06
1.00298e-06
1.00239e-06
1.00201e-06
1.00095e-06
1.00095e-06
1.00095e-06
1.00217e-06
1.00243e-06
1.00299e-06
1.00239e-06
1.00199e-06
1.00099e-06
1.001e-06
1.00103e-06
1.001e-06
1.00099e-06
1.00217e-06
1.00243e-06
1.00299e-06
1.00297e-06
1.00201e-06
1.00099e-06
1.00101e-06
1.00105e-06
1.00105e-06
1.00105e-06
1.00101e-06
1.00099e-06
1.00218e-06
1.00249e-06
1.00301e-06
1.00229e-06
1.00095e-06
1.001e-06
1.00105e-06
1.00106e-06
1.00108e-06
1.00106e-06
1.00105e-06
1.001e-06
1.00095e-06
1.00257e-06
1.00316e-06
1.00224e-06
1.00095e-06
1.00103e-06
1.00105e-06
1.00108e-06
1.00108e-06
1.00108e-06
1.00105e-06
1.00103e-06
1.00095e-06
1.00258e-06
1.00319e-06
1.00228e-06
1.00095e-06
1.001e-06
1.00105e-06
1.00106e-06
1.00108e-06
1.00106e-06
1.00105e-06
1.001e-06
1.00095e-06
1.00257e-06
1.00319e-06
1.00299e-06
1.00217e-06
1.00099e-06
1.00101e-06
1.00105e-06
1.00105e-06
1.00105e-06
1.00101e-06
1.00099e-06
1.00239e-06
1.00255e-06
1.00315e-06
1.003e-06
1.00243e-06
1.00217e-06
1.00099e-06
1.001e-06
1.00103e-06
1.001e-06
1.00099e-06
1.00237e-06
1.00249e-06
1.00257e-06
1.00299e-06
1.00243e-06
1.00218e-06
1.00095e-06
1.00095e-06
1.00095e-06
1.00239e-06
1.00249e-06
1.00255e-06
1.00313e-06
1.00299e-06
1.00249e-06
1.00257e-06
1.00258e-06
1.00257e-06
1.00255e-06
1.00257e-06
1.00313e-06
1.00301e-06
1.00316e-06
1.00319e-06
1.00319e-06
1.00315e-06
9.94388e-07
9.93703e-07
9.93644e-07
9.93691e-07
9.94406e-07
9.9442e-07
9.94398e-07
9.93799e-07
9.93399e-07
9.92325e-07
9.92326e-07
9.92325e-07
9.93551e-07
9.93825e-07
9.94414e-07
9.93799e-07
9.93368e-07
9.92345e-07
9.9236e-07
9.92374e-07
9.9236e-07
9.92345e-07
9.93537e-07
9.93823e-07
9.94417e-07
9.94388e-07
9.93399e-07
9.92345e-07
9.92369e-07
9.92398e-07
9.92398e-07
9.92398e-07
9.92369e-07
9.92345e-07
9.93557e-07
9.93903e-07
9.94432e-07
9.93703e-07
9.92325e-07
9.9236e-07
9.92398e-07
9.92412e-07
9.92427e-07
9.92412e-07
9.92398e-07
9.9236e-07
9.92325e-07
9.93969e-07
9.94586e-07
9.93644e-07
9.92326e-07
9.92375e-07
9.92399e-07
9.92427e-07
9.92429e-07
9.92427e-07
9.92399e-07
9.92375e-07
9.92326e-07
9.93967e-07
9.94607e-07
9.93691e-07
9.92325e-07
9.9236e-07
9.92398e-07
9.92412e-07
9.92427e-07
9.92412e-07
9.92398e-07
9.9236e-07
9.92325e-07
9.93967e-07
9.94607e-07
9.94406e-07
9.93551e-07
9.92345e-07
9.92369e-07
9.92398e-07
9.92399e-07
9.92398e-07
9.92369e-07
9.92345e-07
9.93773e-07
9.93954e-07
9.94573e-07
9.9442e-07
9.93825e-07
9.93537e-07
9.92345e-07
9.9236e-07
9.92375e-07
9.9236e-07
9.92345e-07
9.93747e-07
9.93882e-07
9.93988e-07
9.94414e-07
9.93823e-07
9.93557e-07
9.92325e-07
9.92326e-07
9.92325e-07
9.93773e-07
9.93882e-07
9.93965e-07
9.94551e-07
9.94417e-07
9.93903e-07
9.93969e-07
9.93967e-07
9.93967e-07
9.93954e-07
9.93988e-07
9.94551e-07
9.94432e-07
9.94586e-07
9.94607e-07
9.94607e-07
9.94573e-07
9.85808e-07
9.8512e-07
9.8506e-07
9.85107e-07
9.85826e-07
9.85841e-07
9.85819e-07
9.85215e-07
9.84808e-07
9.83725e-07
9.83726e-07
9.83725e-07
9.84959e-07
9.85238e-07
9.85835e-07
9.85215e-07
9.84773e-07
9.83735e-07
9.83746e-07
9.83753e-07
9.83746e-07
9.83735e-07
9.8494e-07
9.85236e-07
9.85838e-07
9.85808e-07
9.84808e-07
9.83735e-07
9.83752e-07
9.83768e-07
9.8377e-07
9.83768e-07
9.83752e-07
9.83735e-07
9.84963e-07
9.8532e-07
9.85852e-07
9.8512e-07
9.83725e-07
9.83746e-07
9.83769e-07
9.83781e-07
9.83789e-07
9.83781e-07
9.83769e-07
9.83746e-07
9.83725e-07
9.85384e-07
9.86007e-07
9.8506e-07
9.83726e-07
9.83753e-07
9.8377e-07
9.83789e-07
9.83792e-07
9.83789e-07
9.8377e-07
9.83753e-07
9.83726e-07
9.85379e-07
9.86027e-07
9.85107e-07
9.83725e-07
9.83746e-07
9.83768e-07
9.83781e-07
9.83789e-07
9.83781e-07
9.83768e-07
9.83746e-07
9.83725e-07
9.8538e-07
9.86027e-07
9.85826e-07
9.84959e-07
9.83735e-07
9.83752e-07
9.83769e-07
9.8377e-07
9.83769e-07
9.83752e-07
9.83735e-07
9.85179e-07
9.85371e-07
9.85994e-07
9.85841e-07
9.85238e-07
9.8494e-07
9.83735e-07
9.83746e-07
9.83753e-07
9.83746e-07
9.83735e-07
9.8515e-07
9.85293e-07
9.85409e-07
9.85835e-07
9.85236e-07
9.84963e-07
9.83725e-07
9.83726e-07
9.83725e-07
9.8518e-07
9.85294e-07
9.85385e-07
9.85973e-07
9.85838e-07
9.8532e-07
9.85384e-07
9.85379e-07
9.8538e-07
9.85371e-07
9.85408e-07
9.85973e-07
9.85852e-07
9.86007e-07
9.86027e-07
9.86027e-07
9.85994e-07
9.77226e-07
9.76537e-07
9.76476e-07
9.76524e-07
9.77244e-07
9.77259e-07
9.77238e-07
9.76632e-07
9.76222e-07
9.75135e-07
9.75136e-07
9.75135e-07
9.76373e-07
9.76654e-07
9.77254e-07
9.76633e-07
9.76186e-07
9.7514e-07
9.75147e-07
9.7515e-07
9.75147e-07
9.7514e-07
9.76352e-07
9.76652e-07
9.77257e-07
9.77226e-07
9.76222e-07
9.7514e-07
9.7515e-07
9.75159e-07
9.75161e-07
9.75159e-07
9.7515e-07
9.7514e-07
9.76376e-07
9.76738e-07
9.77271e-07
9.76537e-07
9.75135e-07
9.75147e-07
9.75159e-07
9.75168e-07
9.75172e-07
9.75168e-07
9.75159e-07
9.75147e-07
9.75135e-07
9.768e-07
9.77425e-07
9.76476e-07
9.75136e-07
9.7515e-07
9.75161e-07
9.75172e-07
9.75174e-07
9.75172e-07
9.75161e-07
9.7515e-07
9.75136e-07
9.76795e-07
9.77445e-07
9.76524e-07
9.75135e-07
9.75147e-07
9.75159e-07
9.75168e-07
9.75172e-07
9.75168e-07
9.75159e-07
9.75147e-07
9.75135e-07
9.76796e-07
9.77445e-07
9.77244e-07
9.76373e-07
9.7514e-07
9.7515e-07
9.75159e-07
9.75161e-07
9.75159e-07
9.7515e-07
9.7514e-07
9.76593e-07
9.76788e-07
9.77412e-07
9.77259e-07
9.76654e-07
9.76352e-07
9.7514e-07
9.75147e-07
9.7515e-07
9.75147e-07
9.7514e-07
9.76561e-07
9.76709e-07
9.76827e-07
9.77254e-07
9.76652e-07
9.76376e-07
9.75135e-07
9.75136e-07
9.75135e-07
9.76593e-07
9.76709e-07
9.76803e-07
9.77392e-07
9.77257e-07
9.76738e-07
9.768e-07
9.76795e-07
9.76796e-07
9.76788e-07
9.76827e-07
9.77392e-07
9.77271e-07
9.77425e-07
9.77445e-07
9.77445e-07
9.77412e-07
9.68644e-07
9.67953e-07
9.67893e-07
9.6794e-07
9.68662e-07
9.68677e-07
9.68656e-07
9.68049e-07
9.67638e-07
9.66548e-07
9.66549e-07
9.66548e-07
9.67789e-07
9.68071e-07
9.68672e-07
9.68049e-07
9.67601e-07
9.66551e-07
9.66555e-07
9.66556e-07
9.66555e-07
9.66551e-07
9.67766e-07
9.68069e-07
9.68675e-07
9.68644e-07
9.67638e-07
9.66551e-07
9.66557e-07
9.66561e-07
9.66563e-07
9.66561e-07
9.66557e-07
9.66551e-07
9.67791e-07
9.68155e-07
9.68689e-07
9.67953e-07
9.66548e-07
9.66555e-07
9.66562e-07
9.66567e-07
9.66569e-07
9.66567e-07
9.66562e-07
9.66555e-07
9.66548e-07
9.68217e-07
9.68843e-07
9.67893e-07
9.66549e-07
9.66556e-07
9.66563e-07
9.66569e-07
9.66571e-07
9.66569e-07
9.66563e-07
9.66556e-07
9.66549e-07
9.6821e-07
9.68862e-07
9.6794e-07
9.66548e-07
9.66555e-07
9.66562e-07
9.66567e-07
9.66569e-07
9.66567e-07
9.66562e-07
9.66555e-07
9.66548e-07
9.68212e-07
9.68862e-07
9.68662e-07
9.67789e-07
9.66551e-07
9.66557e-07
9.66562e-07
9.66563e-07
9.66562e-07
9.66557e-07
9.66551e-07
9.68008e-07
9.68206e-07
9.6883e-07
9.68677e-07
9.68071e-07
9.67766e-07
9.66551e-07
9.66555e-07
9.66557e-07
9.66556e-07
9.66551e-07
9.67976e-07
9.68126e-07
9.68245e-07
9.68672e-07
9.68068e-07
9.67791e-07
9.66548e-07
9.66549e-07
9.66548e-07
9.68008e-07
9.68126e-07
9.6822e-07
9.6881e-07
9.68675e-07
9.68155e-07
9.68217e-07
9.6821e-07
9.68212e-07
9.68206e-07
9.68245e-07
9.6881e-07
9.68689e-07
9.68843e-07
9.68862e-07
9.68862e-07
9.6883e-07
9.60061e-07
9.5937e-07
9.59309e-07
9.59357e-07
9.60079e-07
9.60094e-07
9.60073e-07
9.59466e-07
9.59054e-07
9.57963e-07
9.57964e-07
9.57963e-07
9.59205e-07
9.59488e-07
9.60089e-07
9.59466e-07
9.59016e-07
9.57965e-07
9.57968e-07
9.57968e-07
9.57968e-07
9.57965e-07
9.59182e-07
9.59485e-07
9.60092e-07
9.60061e-07
9.59054e-07
9.57965e-07
9.57968e-07
9.5797e-07
9.57972e-07
9.5797e-07
9.57968e-07
9.57965e-07
9.59207e-07
9.59572e-07
9.60106e-07
9.5937e-07
9.57963e-07
9.57968e-07
9.5797e-07
9.57974e-07
9.57975e-07
9.57974e-07
9.5797e-07
9.57968e-07
9.57963e-07
9.59634e-07
9.6026e-07
9.59309e-07
9.57964e-07
9.57968e-07
9.57972e-07
9.57975e-07
9.57976e-07
9.57975e-07
9.57972e-07
9.57968e-07
9.57964e-07
9.59627e-07
9.60279e-07
9.59357e-07
9.57963e-07
9.57968e-07
9.5797e-07
9.57974e-07
9.57975e-07
9.57974e-07
9.5797e-07
9.57968e-07
9.57963e-07
9.59629e-07
9.60279e-07
9.60079e-07
9.59205e-07
9.57965e-07
9.57968e-07
9.5797e-07
9.57972e-07
9.5797e-07
9.57968e-07
9.57965e-07
9.59424e-07
9.59622e-07
9.60247e-07
9.60094e-07
9.59488e-07
9.59182e-07
9.57965e-07
9.57968e-07
9.57968e-07
9.57968e-07
9.57965e-07
9.59392e-07
9.59543e-07
9.59662e-07
9.60089e-07
9.59485e-07
9.59207e-07
9.57963e-07
9.57964e-07
9.57963e-07
9.59424e-07
9.59543e-07
9.59638e-07
9.60228e-07
9.60092e-07
9.59572e-07
9.59634e-07
9.59627e-07
9.59629e-07
9.59623e-07
9.59662e-07
9.60227e-07
9.60106e-07
9.6026e-07
9.60279e-07
9.60279e-07
9.60247e-07
9.51478e-07
9.50786e-07
9.50726e-07
9.50774e-07
9.51495e-07
9.51511e-07
9.5149e-07
9.50883e-07
9.5047e-07
9.49379e-07
9.49379e-07
9.49379e-07
9.50621e-07
9.50904e-07
9.51506e-07
9.50883e-07
9.50433e-07
9.4938e-07
9.49382e-07
9.49382e-07
9.49382e-07
9.4938e-07
9.50598e-07
9.50902e-07
9.51509e-07
9.51478e-07
9.5047e-07
9.4938e-07
9.49382e-07
9.49383e-07
9.49384e-07
9.49383e-07
9.49382e-07
9.4938e-07
9.50624e-07
9.50988e-07
9.51523e-07
9.50786e-07
9.49379e-07
9.49382e-07
9.49383e-07
9.49385e-07
9.49386e-07
9.49385e-07
9.49383e-07
9.49382e-07
9.49379e-07
9.5105e-07
9.51676e-07
9.50726e-07
9.49379e-07
9.49382e-07
9.49384e-07
9.49386e-07
9.49386e-07
9.49386e-07
9.49384e-07
9.49382e-07
9.49379e-07
9.51044e-07
9.51696e-07
9.50774e-07
9.49379e-07
9.49382e-07
9.49383e-07
9.49385e-07
9.49386e-07
9.49385e-07
9.49383e-07
9.49382e-07
9.49379e-07
9.51045e-07
9.51696e-07
9.51495e-07
9.50621e-07
9.4938e-07
9.49382e-07
9.49383e-07
9.49384e-07
9.49383e-07
9.49382e-07
9.4938e-07
9.50841e-07
9.51039e-07
9.51663e-07
9.51511e-07
9.50904e-07
9.50598e-07
9.4938e-07
9.49382e-07
9.49382e-07
9.49382e-07
9.4938e-07
9.50808e-07
9.50959e-07
9.51079e-07
9.51506e-07
9.50902e-07
9.50624e-07
9.49379e-07
9.49379e-07
9.49379e-07
9.50841e-07
9.50959e-07
9.51054e-07
9.51645e-07
9.51509e-07
9.50988e-07
9.5105e-07
9.51043e-07
9.51045e-07
9.51039e-07
9.51079e-07
9.51644e-07
9.51523e-07
9.51676e-07
9.51696e-07
9.51696e-07
9.51663e-07
9.42894e-07
9.42203e-07
9.42142e-07
9.4219e-07
9.42912e-07
9.42928e-07
9.42907e-07
9.42299e-07
9.41886e-07
9.40795e-07
9.40796e-07
9.40795e-07
9.42038e-07
9.42321e-07
9.42923e-07
9.42299e-07
9.41849e-07
9.40796e-07
9.40797e-07
9.40797e-07
9.40797e-07
9.40796e-07
9.42015e-07
9.42318e-07
9.42926e-07
9.42894e-07
9.41886e-07
9.40796e-07
9.40797e-07
9.40797e-07
9.40798e-07
9.40797e-07
9.40797e-07
9.40796e-07
9.4204e-07
9.42405e-07
9.42939e-07
9.42203e-07
9.40795e-07
9.40797e-07
9.40797e-07
9.40799e-07
9.40799e-07
9.40799e-07
9.40797e-07
9.40797e-07
9.40795e-07
9.42467e-07
9.43093e-07
9.42142e-07
9.40796e-07
9.40797e-07
9.40798e-07
9.40799e-07
9.40799e-07
9.40799e-07
9.40798e-07
9.40797e-07
9.40796e-07
9.4246e-07
9.43112e-07
9.4219e-07
9.40795e-07
9.40797e-07
9.40797e-07
9.40799e-07
9.40799e-07
9.40799e-07
9.40797e-07
9.40797e-07
9.40795e-07
9.42461e-07
9.43112e-07
9.42912e-07
9.42038e-07
9.40795e-07
9.40797e-07
9.40797e-07
9.40798e-07
9.40797e-07
9.40797e-07
9.40795e-07
9.42257e-07
9.42456e-07
9.4308e-07
9.42928e-07
9.42321e-07
9.42015e-07
9.40796e-07
9.40797e-07
9.40797e-07
9.40797e-07
9.40795e-07
9.42224e-07
9.42376e-07
9.42495e-07
9.42923e-07
9.42318e-07
9.4204e-07
9.40795e-07
9.40796e-07
9.40795e-07
9.42257e-07
9.42376e-07
9.42471e-07
9.43061e-07
9.42926e-07
9.42405e-07
9.42467e-07
9.4246e-07
9.42461e-07
9.42456e-07
9.42495e-07
9.43061e-07
9.42939e-07
9.43093e-07
9.43112e-07
9.43112e-07
9.4308e-07
9.34311e-07
9.3362e-07
9.33559e-07
9.33607e-07
9.34328e-07
9.34344e-07
9.34323e-07
9.33716e-07
9.33303e-07
9.32211e-07
9.32212e-07
9.32211e-07
9.33454e-07
9.33737e-07
9.34339e-07
9.33716e-07
9.33266e-07
9.32212e-07
9.32213e-07
9.32213e-07
9.32213e-07
9.32212e-07
9.33431e-07
9.33735e-07
9.34342e-07
9.34311e-07
9.33303e-07
9.32212e-07
9.32213e-07
9.32213e-07
9.32213e-07
9.32213e-07
9.32213e-07
9.32212e-07
9.33457e-07
9.33821e-07
9.34356e-07
9.33619e-07
9.32211e-07
9.32213e-07
9.32213e-07
9.32214e-07
9.32213e-07
9.32214e-07
9.32213e-07
9.32213e-07
9.32211e-07
9.33883e-07
9.34509e-07
9.33559e-07
9.32212e-07
9.32212e-07
9.32213e-07
9.32213e-07
9.32214e-07
9.32213e-07
9.32213e-07
9.32212e-07
9.32212e-07
9.33876e-07
9.34529e-07
9.33607e-07
9.32211e-07
9.32213e-07
9.32213e-07
9.32214e-07
9.32213e-07
9.32214e-07
9.32213e-07
9.32213e-07
9.32211e-07
9.33878e-07
9.34529e-07
9.34328e-07
9.33454e-07
9.32212e-07
9.32213e-07
9.32213e-07
9.32213e-07
9.32213e-07
9.32213e-07
9.32212e-07
9.33674e-07
9.33872e-07
9.34497e-07
9.34344e-07
9.33737e-07
9.33431e-07
9.32212e-07
9.32213e-07
9.32212e-07
9.32213e-07
9.32211e-07
9.3364e-07
9.33792e-07
9.33912e-07
9.34339e-07
9.33735e-07
9.33457e-07
9.32211e-07
9.32212e-07
9.32211e-07
9.33674e-07
9.33792e-07
9.33887e-07
9.34478e-07
9.34342e-07
9.33821e-07
9.33883e-07
9.33876e-07
9.33878e-07
9.33872e-07
9.33912e-07
9.34477e-07
9.34356e-07
9.34509e-07
9.34529e-07
9.34529e-07
9.34497e-07
9.25727e-07
9.25036e-07
9.24975e-07
9.25023e-07
9.25745e-07
9.25761e-07
9.2574e-07
9.25132e-07
9.24719e-07
9.23627e-07
9.23628e-07
9.23627e-07
9.2487e-07
9.25154e-07
9.25756e-07
9.25132e-07
9.24682e-07
9.23628e-07
9.2363e-07
9.23629e-07
9.2363e-07
9.23628e-07
9.24848e-07
9.25151e-07
9.25759e-07
9.25727e-07
9.24719e-07
9.23628e-07
9.23629e-07
9.23628e-07
9.23629e-07
9.23628e-07
9.23629e-07
9.23628e-07
9.24873e-07
9.25238e-07
9.25772e-07
9.25036e-07
9.23627e-07
9.2363e-07
9.23628e-07
9.2363e-07
9.23629e-07
9.2363e-07
9.23628e-07
9.2363e-07
9.23627e-07
9.253e-07
9.25926e-07
9.24975e-07
9.23628e-07
9.23629e-07
9.23629e-07
9.23629e-07
9.23629e-07
9.23629e-07
9.23629e-07
9.23629e-07
9.23628e-07
9.25293e-07
9.25945e-07
9.25023e-07
9.23627e-07
9.2363e-07
9.23628e-07
9.2363e-07
9.23629e-07
9.2363e-07
9.23628e-07
9.2363e-07
9.23627e-07
9.25294e-07
9.25945e-07
9.25745e-07
9.2487e-07
9.23628e-07
9.23629e-07
9.23628e-07
9.23629e-07
9.23628e-07
9.23629e-07
9.23628e-07
9.2509e-07
9.25289e-07
9.25913e-07
9.25761e-07
9.25154e-07
9.24848e-07
9.23628e-07
9.2363e-07
9.23629e-07
9.2363e-07
9.23628e-07
9.25057e-07
9.25209e-07
9.25329e-07
9.25756e-07
9.25151e-07
9.24873e-07
9.23627e-07
9.23628e-07
9.23627e-07
9.2509e-07
9.25208e-07
9.25304e-07
9.25894e-07
9.25759e-07
9.25238e-07
9.253e-07
9.25293e-07
9.25294e-07
9.25289e-07
9.25328e-07
9.25894e-07
9.25772e-07
9.25926e-07
9.25945e-07
9.25945e-07
9.25913e-07
9.17144e-07
9.16453e-07
9.16392e-07
9.1644e-07
9.17162e-07
9.17177e-07
9.17156e-07
9.16549e-07
9.16136e-07
9.15044e-07
9.15045e-07
9.15044e-07
9.16287e-07
9.1657e-07
9.17172e-07
9.16549e-07
9.16098e-07
9.15044e-07
9.15046e-07
9.15045e-07
9.15046e-07
9.15044e-07
9.16264e-07
9.16568e-07
9.17175e-07
9.17144e-07
9.16136e-07
9.15044e-07
9.15045e-07
9.15045e-07
9.15045e-07
9.15045e-07
9.15045e-07
9.15044e-07
9.16289e-07
9.16654e-07
9.17189e-07
9.16452e-07
9.15044e-07
9.15046e-07
9.15045e-07
9.15046e-07
9.15045e-07
9.15046e-07
9.15045e-07
9.15046e-07
9.15044e-07
9.16716e-07
9.17343e-07
9.16392e-07
9.15045e-07
9.15045e-07
9.15045e-07
9.15045e-07
9.15046e-07
9.15045e-07
9.15045e-07
9.15045e-07
9.15045e-07
9.16709e-07
9.17362e-07
9.1644e-07
9.15044e-07
9.15046e-07
9.15045e-07
9.15046e-07
9.15045e-07
9.15046e-07
9.15045e-07
9.15046e-07
9.15044e-07
9.16711e-07
9.17362e-07
9.17162e-07
9.16287e-07
9.15044e-07
9.15045e-07
9.15045e-07
9.15045e-07
9.15045e-07
9.15045e-07
9.15044e-07
9.16506e-07
9.16705e-07
9.1733e-07
9.17177e-07
9.1657e-07
9.16264e-07
9.15044e-07
9.15046e-07
9.15045e-07
9.15046e-07
9.15044e-07
9.16473e-07
9.16625e-07
9.16745e-07
9.17172e-07
9.16568e-07
9.16289e-07
9.15044e-07
9.15045e-07
9.15044e-07
9.16506e-07
9.16625e-07
9.1672e-07
9.17311e-07
9.17175e-07
9.16654e-07
9.16716e-07
9.16709e-07
9.16711e-07
9.16705e-07
9.16745e-07
9.17311e-07
9.17189e-07
9.17343e-07
9.17362e-07
9.17362e-07
9.1733e-07
9.0856e-07
9.07869e-07
9.07808e-07
9.07856e-07
9.08578e-07
9.08594e-07
9.08573e-07
9.07965e-07
9.07552e-07
9.0646e-07
9.06461e-07
9.0646e-07
9.07704e-07
9.07987e-07
9.08589e-07
9.07965e-07
9.07515e-07
9.06461e-07
9.06462e-07
9.06461e-07
9.06462e-07
9.06461e-07
9.07681e-07
9.07984e-07
9.08592e-07
9.0856e-07
9.07552e-07
9.06461e-07
9.06462e-07
9.06461e-07
9.06461e-07
9.06461e-07
9.06462e-07
9.06461e-07
9.07706e-07
9.08071e-07
9.08605e-07
9.07869e-07
9.0646e-07
9.06462e-07
9.06461e-07
9.06463e-07
9.06461e-07
9.06463e-07
9.06461e-07
9.06462e-07
9.0646e-07
9.08133e-07
9.08759e-07
9.07808e-07
9.06461e-07
9.06461e-07
9.06461e-07
9.06461e-07
9.06462e-07
9.06461e-07
9.06461e-07
9.06461e-07
9.06461e-07
9.08126e-07
9.08778e-07
9.07856e-07
9.0646e-07
9.06462e-07
9.06461e-07
9.06463e-07
9.06461e-07
9.06463e-07
9.06461e-07
9.06462e-07
9.0646e-07
9.08127e-07
9.08779e-07
9.08578e-07
9.07704e-07
9.06461e-07
9.06462e-07
9.06461e-07
9.06461e-07
9.06461e-07
9.06462e-07
9.06461e-07
9.07923e-07
9.08122e-07
9.08746e-07
9.08594e-07
9.07987e-07
9.07681e-07
9.06461e-07
9.06462e-07
9.06461e-07
9.06462e-07
9.06461e-07
9.0789e-07
9.08042e-07
9.08162e-07
9.08589e-07
9.07984e-07
9.07706e-07
9.0646e-07
9.06461e-07
9.0646e-07
9.07923e-07
9.08042e-07
9.08137e-07
9.08727e-07
9.08592e-07
9.08071e-07
9.08133e-07
9.08126e-07
9.08127e-07
9.08122e-07
9.08162e-07
9.08727e-07
9.08605e-07
9.08759e-07
9.08779e-07
9.08779e-07
9.08746e-07
8.99977e-07
8.99285e-07
8.99225e-07
8.99273e-07
8.99994e-07
9.0001e-07
8.99989e-07
8.99382e-07
8.98969e-07
8.97877e-07
8.97877e-07
8.97877e-07
8.9912e-07
8.99403e-07
9.00005e-07
8.99382e-07
8.98931e-07
8.97877e-07
8.97879e-07
8.97878e-07
8.97879e-07
8.97877e-07
8.99097e-07
8.99401e-07
9.00008e-07
8.99977e-07
8.98969e-07
8.97877e-07
8.97878e-07
8.97877e-07
8.97878e-07
8.97877e-07
8.97878e-07
8.97877e-07
8.99123e-07
8.99487e-07
9.00022e-07
8.99285e-07
8.97877e-07
8.97879e-07
8.97877e-07
8.97879e-07
8.97878e-07
8.97879e-07
8.97877e-07
8.97879e-07
8.97877e-07
8.99549e-07
9.00176e-07
8.99225e-07
8.97877e-07
8.97878e-07
8.97878e-07
8.97878e-07
8.97878e-07
8.97878e-07
8.97878e-07
8.97878e-07
8.97877e-07
8.99542e-07
9.00195e-07
8.99273e-07
8.97877e-07
8.97879e-07
8.97877e-07
8.97879e-07
8.97878e-07
8.97879e-07
8.97877e-07
8.97879e-07
8.97877e-07
8.99544e-07
9.00195e-07
8.99994e-07
8.9912e-07
8.97877e-07
8.97878e-07
8.97877e-07
8.97878e-07
8.97877e-07
8.97878e-07
8.97877e-07
8.99339e-07
8.99538e-07
9.00163e-07
9.0001e-07
8.99403e-07
8.99097e-07
8.97877e-07
8.97879e-07
8.97878e-07
8.97879e-07
8.97877e-07
8.99307e-07
8.99458e-07
8.99578e-07
9.00005e-07
8.99401e-07
8.99123e-07
8.97877e-07
8.97878e-07
8.97877e-07
8.9934e-07
8.99458e-07
8.99554e-07
9.00144e-07
9.00008e-07
8.99487e-07
8.99549e-07
8.99542e-07
8.99544e-07
8.99538e-07
8.99578e-07
9.00144e-07
9.00022e-07
9.00176e-07
9.00195e-07
9.00195e-07
9.00163e-07
8.91393e-07
8.90702e-07
8.90641e-07
8.90689e-07
8.91411e-07
8.91427e-07
8.91406e-07
8.90798e-07
8.90385e-07
8.89293e-07
8.89294e-07
8.89293e-07
8.90537e-07
8.9082e-07
8.91422e-07
8.90798e-07
8.90348e-07
8.89294e-07
8.89295e-07
8.89294e-07
8.89295e-07
8.89294e-07
8.90514e-07
8.90817e-07
8.91425e-07
8.91393e-07
8.90385e-07
8.89294e-07
8.89294e-07
8.89294e-07
8.89294e-07
8.89294e-07
8.89294e-07
8.89294e-07
8.90539e-07
8.90904e-07
8.91438e-07
8.90702e-07
8.89293e-07
8.89295e-07
8.89294e-07
8.89295e-07
8.89294e-07
8.89295e-07
8.89294e-07
8.89295e-07
8.89293e-07
8.90966e-07
8.91592e-07
8.90641e-07
8.89294e-07
8.89294e-07
8.89294e-07
8.89294e-07
8.89294e-07
8.89294e-07
8.89294e-07
8.89294e-07
8.89294e-07
8.90959e-07
8.91611e-07
8.90689e-07
8.89293e-07
8.89295e-07
8.89294e-07
8.89295e-07
8.89294e-07
8.89295e-07
8.89294e-07
8.89295e-07
8.89293e-07
8.9096e-07
8.91611e-07
8.91411e-07
8.90536e-07
8.89294e-07
8.89294e-07
8.89294e-07
8.89294e-07
8.89294e-07
8.89294e-07
8.89294e-07
8.90756e-07
8.90955e-07
8.91579e-07
8.91427e-07
8.9082e-07
8.90514e-07
8.89294e-07
8.89295e-07
8.89294e-07
8.89295e-07
8.89294e-07
8.90723e-07
8.90875e-07
8.90995e-07
8.91422e-07
8.90817e-07
8.90539e-07
8.89293e-07
8.89294e-07
8.89293e-07
8.90756e-07
8.90875e-07
8.9097e-07
8.9156e-07
8.91425e-07
8.90904e-07
8.90966e-07
8.90959e-07
8.9096e-07
8.90955e-07
8.90995e-07
8.9156e-07
8.91438e-07
8.91592e-07
8.91611e-07
8.91612e-07
8.91579e-07
8.8281e-07
8.82118e-07
8.82058e-07
8.82106e-07
8.82828e-07
8.82843e-07
8.82822e-07
8.82215e-07
8.81802e-07
8.8071e-07
8.8071e-07
8.8071e-07
8.81953e-07
8.82236e-07
8.82838e-07
8.82215e-07
8.81764e-07
8.8071e-07
8.80712e-07
8.80711e-07
8.80712e-07
8.8071e-07
8.8193e-07
8.82234e-07
8.82841e-07
8.8281e-07
8.81802e-07
8.8071e-07
8.80711e-07
8.8071e-07
8.80711e-07
8.8071e-07
8.80711e-07
8.8071e-07
8.81956e-07
8.8232e-07
8.82855e-07
8.82118e-07
8.8071e-07
8.80712e-07
8.8071e-07
8.80712e-07
8.8071e-07
8.80712e-07
8.8071e-07
8.80712e-07
8.8071e-07
8.82382e-07
8.83008e-07
8.82058e-07
8.8071e-07
8.80711e-07
8.80711e-07
8.8071e-07
8.80711e-07
8.8071e-07
8.80711e-07
8.80711e-07
8.8071e-07
8.82375e-07
8.83028e-07
8.82106e-07
8.8071e-07
8.80712e-07
8.8071e-07
8.80712e-07
8.8071e-07
8.80712e-07
8.8071e-07
8.80712e-07
8.8071e-07
8.82377e-07
8.83028e-07
8.82827e-07
8.81953e-07
8.8071e-07
8.80711e-07
8.8071e-07
8.80711e-07
8.8071e-07
8.80711e-07
8.8071e-07
8.82172e-07
8.82371e-07
8.82996e-07
8.82843e-07
8.82236e-07
8.8193e-07
8.8071e-07
8.80712e-07
8.80711e-07
8.80712e-07
8.8071e-07
8.8214e-07
8.82291e-07
8.82411e-07
8.82838e-07
8.82234e-07
8.81956e-07
8.8071e-07
8.8071e-07
8.8071e-07
8.82173e-07
8.82291e-07
8.82387e-07
8.82977e-07
8.82841e-07
8.8232e-07
8.82382e-07
8.82375e-07
8.82377e-07
8.82371e-07
8.82411e-07
8.82977e-07
8.82855e-07
8.83008e-07
8.83028e-07
8.83028e-07
8.82996e-07
8.74226e-07
8.73535e-07
8.73474e-07
8.73522e-07
8.74244e-07
8.7426e-07
8.74239e-07
8.73631e-07
8.73218e-07
8.72126e-07
8.72127e-07
8.72126e-07
8.73369e-07
8.73653e-07
8.74255e-07
8.73631e-07
8.73181e-07
8.72127e-07
8.72128e-07
8.72127e-07
8.72128e-07
8.72127e-07
8.73347e-07
8.7365e-07
8.74258e-07
8.74226e-07
8.73218e-07
8.72127e-07
8.72127e-07
8.72127e-07
8.72127e-07
8.72127e-07
8.72127e-07
8.72127e-07
8.73372e-07
8.73737e-07
8.74271e-07
8.73535e-07
8.72126e-07
8.72128e-07
8.72127e-07
8.72128e-07
8.72127e-07
8.72128e-07
8.72127e-07
8.72128e-07
8.72126e-07
8.73799e-07
8.74425e-07
8.73474e-07
8.72127e-07
8.72127e-07
8.72127e-07
8.72127e-07
8.72127e-07
8.72127e-07
8.72127e-07
8.72127e-07
8.72127e-07
8.73792e-07
8.74444e-07
8.73522e-07
8.72126e-07
8.72128e-07
8.72127e-07
8.72128e-07
8.72127e-07
8.72128e-07
8.72127e-07
8.72128e-07
8.72126e-07
8.73793e-07
8.74444e-07
8.74244e-07
8.73369e-07
8.72127e-07
8.72127e-07
8.72127e-07
8.72127e-07
8.72127e-07
8.72127e-07
8.72127e-07
8.73589e-07
8.73788e-07
8.74412e-07
8.7426e-07
8.73653e-07
8.73347e-07
8.72127e-07
8.72128e-07
8.72127e-07
8.72128e-07
8.72127e-07
8.73556e-07
8.73708e-07
8.73827e-07
8.74255e-07
8.7365e-07
8.73372e-07
8.72126e-07
8.72127e-07
8.72126e-07
8.73589e-07
8.73708e-07
8.73803e-07
8.74393e-07
8.74258e-07
8.73737e-07
8.73799e-07
8.73792e-07
8.73793e-07
8.73788e-07
8.73827e-07
8.74393e-07
8.74271e-07
8.74425e-07
8.74444e-07
8.74444e-07
8.74412e-07
8.65643e-07
8.64952e-07
8.64891e-07
8.64939e-07
8.65661e-07
8.65676e-07
8.65655e-07
8.65048e-07
8.64635e-07
8.63543e-07
8.63544e-07
8.63543e-07
8.64786e-07
8.65069e-07
8.65671e-07
8.65048e-07
8.64597e-07
8.63543e-07
8.63545e-07
8.63544e-07
8.63545e-07
8.63543e-07
8.64763e-07
8.65067e-07
8.65674e-07
8.65643e-07
8.64635e-07
8.63543e-07
8.63544e-07
8.63543e-07
8.63544e-07
8.63543e-07
8.63544e-07
8.63543e-07
8.64789e-07
8.65153e-07
8.65688e-07
8.64951e-07
8.63543e-07
8.63545e-07
8.63543e-07
8.63545e-07
8.63543e-07
8.63545e-07
8.63543e-07
8.63545e-07
8.63543e-07
8.65215e-07
8.65841e-07
8.64891e-07
8.63544e-07
8.63544e-07
8.63544e-07
8.63543e-07
8.63544e-07
8.63543e-07
8.63544e-07
8.63544e-07
8.63543e-07
8.65208e-07
8.65861e-07
8.64939e-07
8.63543e-07
8.63545e-07
8.63543e-07
8.63545e-07
8.63543e-07
8.63545e-07
8.63543e-07
8.63545e-07
8.63543e-07
8.6521e-07
8.65861e-07
8.65661e-07
8.64786e-07
8.63543e-07
8.63544e-07
8.63543e-07
8.63544e-07
8.63543e-07
8.63544e-07
8.63543e-07
8.65005e-07
8.65204e-07
8.65829e-07
8.65676e-07
8.65069e-07
8.64763e-07
8.63543e-07
8.63545e-07
8.63544e-07
8.63545e-07
8.63543e-07
8.64973e-07
8.65124e-07
8.65244e-07
8.65671e-07
8.65067e-07
8.64789e-07
8.63543e-07
8.63543e-07
8.63543e-07
8.65005e-07
8.65124e-07
8.65219e-07
8.6581e-07
8.65674e-07
8.65153e-07
8.65215e-07
8.65208e-07
8.6521e-07
8.65204e-07
8.65244e-07
8.6581e-07
8.65688e-07
8.65841e-07
8.65861e-07
8.65861e-07
8.65829e-07
8.57059e-07
8.56368e-07
8.56307e-07
8.56355e-07
8.57077e-07
8.57093e-07
8.57072e-07
8.56464e-07
8.56051e-07
8.54959e-07
8.5496e-07
8.54959e-07
8.56203e-07
8.56486e-07
8.57088e-07
8.56464e-07
8.56014e-07
8.5496e-07
8.54961e-07
8.5496e-07
8.54961e-07
8.5496e-07
8.5618e-07
8.56483e-07
8.57091e-07
8.57059e-07
8.56051e-07
8.5496e-07
8.5496e-07
8.5496e-07
8.5496e-07
8.5496e-07
8.5496e-07
8.5496e-07
8.56205e-07
8.5657e-07
8.57104e-07
8.56368e-07
8.54959e-07
8.54961e-07
8.5496e-07
8.54961e-07
8.5496e-07
8.54961e-07
8.5496e-07
8.54961e-07
8.54959e-07
8.56632e-07
8.57258e-07
8.56307e-07
8.5496e-07
8.5496e-07
8.5496e-07
8.5496e-07
8.5496e-07
8.5496e-07
8.5496e-07
8.5496e-07
8.5496e-07
8.56625e-07
8.57277e-07
8.56355e-07
8.54959e-07
8.54961e-07
8.5496e-07
8.54961e-07
8.5496e-07
8.54961e-07
8.5496e-07
8.54961e-07
8.54959e-07
8.56626e-07
8.57277e-07
8.57077e-07
8.56202e-07
8.5496e-07
8.5496e-07
8.5496e-07
8.5496e-07
8.5496e-07
8.5496e-07
8.5496e-07
8.56422e-07
8.56621e-07
8.57245e-07
8.57093e-07
8.56486e-07
8.5618e-07
8.5496e-07
8.54961e-07
8.5496e-07
8.54961e-07
8.5496e-07
8.56389e-07
8.56541e-07
8.56661e-07
8.57088e-07
8.56483e-07
8.56205e-07
8.54959e-07
8.5496e-07
8.54959e-07
8.56422e-07
8.56541e-07
8.56636e-07
8.57226e-07
8.57091e-07
8.5657e-07
8.56632e-07
8.56625e-07
8.56626e-07
8.56621e-07
8.56661e-07
8.57226e-07
8.57104e-07
8.57258e-07
8.57277e-07
8.57277e-07
8.57245e-07
8.48476e-07
8.47784e-07
8.47724e-07
8.47772e-07
8.48494e-07
8.48509e-07
8.48488e-07
8.47881e-07
8.47468e-07
8.46376e-07
8.46377e-07
8.46376e-07
8.47619e-07
8.47902e-07
8.48504e-07
8.47881e-07
8.4743e-07
8.46376e-07
8.46378e-07
8.46377e-07
8.46378e-07
8.46376e-07
8.47596e-07
8.479e-07
8.48508e-07
8.48476e-07
8.47468e-07
8.46376e-07
8.46377e-07
8.46376e-07
8.46377e-07
8.46376e-07
8.46377e-07
8.46376e-07
8.47622e-07
8.47987e-07
8.48521e-07
8.47784e-07
8.46376e-07
8.46378e-07
8.46376e-07
8.46378e-07
8.46376e-07
8.46378e-07
8.46376e-07
8.46378e-07
8.46376e-07
8.48048e-07
8.48675e-07
8.47724e-07
8.46376e-07
8.46377e-07
8.46377e-07
8.46376e-07
8.46377e-07
8.46376e-07
8.46377e-07
8.46377e-07
8.46377e-07
8.48041e-07
8.48694e-07
8.47772e-07
8.46376e-07
8.46378e-07
8.46376e-07
8.46378e-07
8.46376e-07
8.46378e-07
8.46376e-07
8.46378e-07
8.46376e-07