/*--------------------------------*- C++ -*----------------------------------*\
| =========                 |                                                 |
| \\      /  F ield         | OpenFOAM: The Open Source CFD Toolbox           |
|  \\    /   O peration     | Version:  v2012                                 |
|   \\  /    A nd           | Website:  www.openfoam.com                      |
|    \\/     M anipulation  |                                                 |
\*---------------------------------------------------------------------------*/
FoamFile
{
    version     2.0;
    format      ascii;
    class       volScalarField;
    location    "64";
    object      p;
}
// * * * * * * * * * * * * * * * * * * * * * * * * * * * * * * * * * * * * * //

dimensions      [0 2 -2 0 0 0 0];


internalField   nonuniform List<scalar> 
292667
(
1.09546e-06
1.08641e-06
1.08572e-06
1.08578e-06
1.08671e-06
1.09633e-06
1.08662e-06
1.08423e-06
1.08283e-06
1.08225e-06
1.08233e-06
1.08308e-06
1.08469e-06
1.08728e-06
1.08662e-06
1.08354e-06
1.0816e-06
1.08054e-06
1.08008e-06
1.08014e-06
1.08073e-06
1.08197e-06
1.08414e-06
1.08746e-06
1.09546e-06
1.08423e-06
1.0816e-06
1.08003e-06
1.07915e-06
1.07878e-06
1.07883e-06
1.07932e-06
1.08034e-06
1.08212e-06
1.08506e-06
1.09497e-06
1.08641e-06
1.08283e-06
1.08054e-06
1.07915e-06
1.07837e-06
1.07803e-06
1.07808e-06
1.07852e-06
1.07943e-06
1.081e-06
1.08359e-06
1.08981e-06
1.08572e-06
1.08225e-06
1.08008e-06
1.07878e-06
1.07803e-06
1.07771e-06
1.07775e-06
1.07817e-06
1.07904e-06
1.08053e-06
1.08299e-06
1.08827e-06
1.08578e-06
1.08233e-06
1.08014e-06
1.07883e-06
1.07808e-06
1.07775e-06
1.0778e-06
1.07822e-06
1.0791e-06
1.08059e-06
1.08308e-06
1.08857e-06
1.08671e-06
1.08308e-06
1.08073e-06
1.07932e-06
1.07852e-06
1.07817e-06
1.07822e-06
1.07867e-06
1.0796e-06
1.08121e-06
1.08388e-06
1.0901e-06
1.09633e-06
1.08469e-06
1.08197e-06
1.08034e-06
1.07943e-06
1.07904e-06
1.0791e-06
1.0796e-06
1.08067e-06
1.08253e-06
1.08557e-06
1.09483e-06
1.08728e-06
1.08414e-06
1.08212e-06
1.081e-06
1.08053e-06
1.08059e-06
1.08121e-06
1.08253e-06
1.08483e-06
1.09077e-06
1.08746e-06
1.08506e-06
1.08359e-06
1.08299e-06
1.08308e-06
1.08388e-06
1.08557e-06
1.09077e-06
1.09497e-06
1.08981e-06
1.08827e-06
1.08857e-06
1.0901e-06
1.09483e-06
1.07082e-06
1.07012e-06
1.07009e-06
1.07014e-06
1.07084e-06
1.07071e-06
1.07085e-06
1.07031e-06
1.06996e-06
1.06875e-06
1.06874e-06
1.06875e-06
1.07013e-06
1.07037e-06
1.0709e-06
1.07031e-06
1.06995e-06
1.0688e-06
1.06875e-06
1.06879e-06
1.06875e-06
1.0688e-06
1.07011e-06
1.07036e-06
1.07088e-06
1.07082e-06
1.06996e-06
1.0688e-06
1.06874e-06
1.06876e-06
1.06875e-06
1.06876e-06
1.06874e-06
1.0688e-06
1.07011e-06
1.07038e-06
1.07091e-06
1.07012e-06
1.06875e-06
1.06875e-06
1.06876e-06
1.06872e-06
1.06873e-06
1.06872e-06
1.06876e-06
1.06875e-06
1.06876e-06
1.07053e-06
1.07108e-06
1.07009e-06
1.06874e-06
1.06879e-06
1.06875e-06
1.06873e-06
1.06872e-06
1.06873e-06
1.06875e-06
1.06879e-06
1.06874e-06
1.07056e-06
1.07101e-06
1.07014e-06
1.06875e-06
1.06875e-06
1.06876e-06
1.06872e-06
1.06873e-06
1.06872e-06
1.06876e-06
1.06875e-06
1.06875e-06
1.07055e-06
1.07103e-06
1.07084e-06
1.07013e-06
1.0688e-06
1.06874e-06
1.06876e-06
1.06875e-06
1.06876e-06
1.06874e-06
1.0688e-06
1.0703e-06
1.07044e-06
1.07103e-06
1.07071e-06
1.07037e-06
1.07011e-06
1.0688e-06
1.06875e-06
1.06879e-06
1.06875e-06
1.0688e-06
1.07027e-06
1.07041e-06
1.07041e-06
1.0709e-06
1.07036e-06
1.07011e-06
1.06876e-06
1.06874e-06
1.06875e-06
1.0703e-06
1.07041e-06
1.07045e-06
1.071e-06
1.07088e-06
1.07038e-06
1.07053e-06
1.07056e-06
1.07055e-06
1.07044e-06
1.07041e-06
1.071e-06
1.07091e-06
1.07108e-06
1.07101e-06
1.07103e-06
1.07103e-06
1.06172e-06
1.06097e-06
1.06091e-06
1.06096e-06
1.06172e-06
1.06175e-06
1.06173e-06
1.06108e-06
1.06068e-06
1.05951e-06
1.05951e-06
1.05951e-06
1.06084e-06
1.06112e-06
1.06174e-06
1.06109e-06
1.06066e-06
1.05955e-06
1.05955e-06
1.05959e-06
1.05955e-06
1.05955e-06
1.06084e-06
1.06112e-06
1.06174e-06
1.06172e-06
1.06068e-06
1.05955e-06
1.05957e-06
1.05961e-06
1.05961e-06
1.05961e-06
1.05957e-06
1.05955e-06
1.06085e-06
1.06118e-06
1.06176e-06
1.06097e-06
1.05951e-06
1.05955e-06
1.05961e-06
1.05962e-06
1.05964e-06
1.05962e-06
1.05961e-06
1.05955e-06
1.05951e-06
1.06124e-06
1.06191e-06
1.06091e-06
1.05951e-06
1.05959e-06
1.05961e-06
1.05964e-06
1.05965e-06
1.05964e-06
1.05961e-06
1.05959e-06
1.05951e-06
1.06125e-06
1.06193e-06
1.06096e-06
1.05951e-06
1.05955e-06
1.05961e-06
1.05962e-06
1.05964e-06
1.05962e-06
1.05961e-06
1.05955e-06
1.05951e-06
1.06124e-06
1.06193e-06
1.06172e-06
1.06084e-06
1.05955e-06
1.05957e-06
1.05961e-06
1.05961e-06
1.05961e-06
1.05957e-06
1.05955e-06
1.06105e-06
1.06123e-06
1.0619e-06
1.06175e-06
1.06112e-06
1.06084e-06
1.05955e-06
1.05955e-06
1.05959e-06
1.05955e-06
1.05955e-06
1.06103e-06
1.06117e-06
1.06126e-06
1.06174e-06
1.06112e-06
1.06085e-06
1.05951e-06
1.05951e-06
1.05951e-06
1.06105e-06
1.06117e-06
1.06124e-06
1.06188e-06
1.06174e-06
1.06118e-06
1.06124e-06
1.06125e-06
1.06124e-06
1.06123e-06
1.06126e-06
1.06188e-06
1.06176e-06
1.06191e-06
1.06193e-06
1.06193e-06
1.0619e-06
1.05264e-06
1.05188e-06
1.05182e-06
1.05187e-06
1.05264e-06
1.05267e-06
1.05266e-06
1.05199e-06
1.05157e-06
1.05038e-06
1.05038e-06
1.05038e-06
1.05172e-06
1.05201e-06
1.05266e-06
1.05199e-06
1.05154e-06
1.0504e-06
1.05041e-06
1.05043e-06
1.05041e-06
1.0504e-06
1.0517e-06
1.05201e-06
1.05266e-06
1.05264e-06
1.05157e-06
1.0504e-06
1.05042e-06
1.05045e-06
1.05046e-06
1.05045e-06
1.05042e-06
1.0504e-06
1.05172e-06
1.05209e-06
1.05269e-06
1.05188e-06
1.05038e-06
1.05041e-06
1.05046e-06
1.05047e-06
1.05048e-06
1.05047e-06
1.05046e-06
1.05041e-06
1.05038e-06
1.05214e-06
1.05283e-06
1.05182e-06
1.05038e-06
1.05043e-06
1.05046e-06
1.05049e-06
1.05049e-06
1.05049e-06
1.05046e-06
1.05043e-06
1.05038e-06
1.05214e-06
1.05285e-06
1.05187e-06
1.05038e-06
1.05041e-06
1.05046e-06
1.05047e-06
1.05049e-06
1.05047e-06
1.05046e-06
1.05041e-06
1.05038e-06
1.05214e-06
1.05285e-06
1.05264e-06
1.05172e-06
1.0504e-06
1.05042e-06
1.05046e-06
1.05046e-06
1.05046e-06
1.05042e-06
1.0504e-06
1.05193e-06
1.05213e-06
1.05282e-06
1.05267e-06
1.05201e-06
1.0517e-06
1.0504e-06
1.05041e-06
1.05043e-06
1.05041e-06
1.0504e-06
1.05191e-06
1.05206e-06
1.05217e-06
1.05266e-06
1.05201e-06
1.05172e-06
1.05038e-06
1.05038e-06
1.05038e-06
1.05193e-06
1.05206e-06
1.05215e-06
1.0528e-06
1.05266e-06
1.05209e-06
1.05214e-06
1.05214e-06
1.05214e-06
1.05213e-06
1.05218e-06
1.0528e-06
1.05269e-06
1.05283e-06
1.05285e-06
1.05285e-06
1.05282e-06
1.04356e-06
1.0428e-06
1.04274e-06
1.04278e-06
1.04356e-06
1.04359e-06
1.04358e-06
1.04291e-06
1.04247e-06
1.04128e-06
1.04128e-06
1.04128e-06
1.04262e-06
1.04292e-06
1.04358e-06
1.04291e-06
1.04244e-06
1.04129e-06
1.0413e-06
1.04131e-06
1.0413e-06
1.04129e-06
1.0426e-06
1.04292e-06
1.04358e-06
1.04356e-06
1.04247e-06
1.04129e-06
1.0413e-06
1.04132e-06
1.04132e-06
1.04132e-06
1.0413e-06
1.04129e-06
1.04263e-06
1.043e-06
1.04361e-06
1.0428e-06
1.04128e-06
1.0413e-06
1.04132e-06
1.04133e-06
1.04134e-06
1.04134e-06
1.04132e-06
1.0413e-06
1.04128e-06
1.04306e-06
1.04375e-06
1.04274e-06
1.04128e-06
1.04131e-06
1.04132e-06
1.04134e-06
1.04135e-06
1.04134e-06
1.04132e-06
1.04131e-06
1.04128e-06
1.04305e-06
1.04377e-06
1.04278e-06
1.04128e-06
1.0413e-06
1.04132e-06
1.04134e-06
1.04134e-06
1.04133e-06
1.04132e-06
1.0413e-06
1.04128e-06
1.04305e-06
1.04377e-06
1.04356e-06
1.04262e-06
1.04129e-06
1.0413e-06
1.04132e-06
1.04132e-06
1.04132e-06
1.0413e-06
1.04129e-06
1.04284e-06
1.04305e-06
1.04374e-06
1.04359e-06
1.04292e-06
1.0426e-06
1.04129e-06
1.0413e-06
1.04131e-06
1.0413e-06
1.04129e-06
1.04281e-06
1.04297e-06
1.04309e-06
1.04358e-06
1.04292e-06
1.04263e-06
1.04128e-06
1.04128e-06
1.04128e-06
1.04284e-06
1.04297e-06
1.04307e-06
1.04372e-06
1.04358e-06
1.043e-06
1.04306e-06
1.04305e-06
1.04305e-06
1.04305e-06
1.04309e-06
1.04372e-06
1.04361e-06
1.04375e-06
1.04377e-06
1.04377e-06
1.04374e-06
1.03448e-06
1.03372e-06
1.03365e-06
1.0337e-06
1.03448e-06
1.03451e-06
1.03449e-06
1.03382e-06
1.03339e-06
1.03218e-06
1.03219e-06
1.03218e-06
1.03354e-06
1.03384e-06
1.0345e-06
1.03382e-06
1.03335e-06
1.03219e-06
1.0322e-06
1.0322e-06
1.0322e-06
1.03219e-06
1.03351e-06
1.03384e-06
1.0345e-06
1.03448e-06
1.03339e-06
1.03219e-06
1.0322e-06
1.03221e-06
1.03221e-06
1.03221e-06
1.0322e-06
1.03219e-06
1.03354e-06
1.03392e-06
1.03452e-06
1.03372e-06
1.03218e-06
1.0322e-06
1.03221e-06
1.03222e-06
1.03222e-06
1.03222e-06
1.03221e-06
1.0322e-06
1.03218e-06
1.03397e-06
1.03467e-06
1.03365e-06
1.03219e-06
1.0322e-06
1.03221e-06
1.03222e-06
1.03223e-06
1.03222e-06
1.03221e-06
1.0322e-06
1.03219e-06
1.03396e-06
1.03468e-06
1.0337e-06
1.03218e-06
1.0322e-06
1.03221e-06
1.03222e-06
1.03222e-06
1.03222e-06
1.03221e-06
1.0322e-06
1.03218e-06
1.03397e-06
1.03468e-06
1.03448e-06
1.03354e-06
1.03219e-06
1.0322e-06
1.03221e-06
1.03221e-06
1.03221e-06
1.0322e-06
1.03219e-06
1.03375e-06
1.03397e-06
1.03466e-06
1.03451e-06
1.03384e-06
1.03351e-06
1.03219e-06
1.0322e-06
1.0322e-06
1.0322e-06
1.03219e-06
1.03372e-06
1.03389e-06
1.03401e-06
1.0345e-06
1.03384e-06
1.03354e-06
1.03218e-06
1.03219e-06
1.03218e-06
1.03375e-06
1.03389e-06
1.03399e-06
1.03464e-06
1.0345e-06
1.03392e-06
1.03397e-06
1.03396e-06
1.03396e-06
1.03397e-06
1.03401e-06
1.03464e-06
1.03452e-06
1.03467e-06
1.03468e-06
1.03468e-06
1.03466e-06
1.02539e-06
1.02463e-06
1.02457e-06
1.02462e-06
1.0254e-06
1.02542e-06
1.02541e-06
1.02474e-06
1.0243e-06
1.0231e-06
1.0231e-06
1.0231e-06
1.02445e-06
1.02475e-06
1.02541e-06
1.02474e-06
1.02427e-06
1.0231e-06
1.0231e-06
1.02311e-06
1.0231e-06
1.0231e-06
1.02443e-06
1.02475e-06
1.02542e-06
1.02539e-06
1.0243e-06
1.0231e-06
1.02311e-06
1.02311e-06
1.02311e-06
1.02311e-06
1.02311e-06
1.0231e-06
1.02445e-06
1.02484e-06
1.02544e-06
1.02463e-06
1.0231e-06
1.0231e-06
1.02311e-06
1.02312e-06
1.02312e-06
1.02312e-06
1.02311e-06
1.0231e-06
1.0231e-06
1.02489e-06
1.02558e-06
1.02457e-06
1.0231e-06
1.02311e-06
1.02311e-06
1.02312e-06
1.02312e-06
1.02312e-06
1.02311e-06
1.02311e-06
1.0231e-06
1.02488e-06
1.0256e-06
1.02462e-06
1.0231e-06
1.0231e-06
1.02311e-06
1.02312e-06
1.02312e-06
1.02312e-06
1.02311e-06
1.0231e-06
1.0231e-06
1.02488e-06
1.0256e-06
1.0254e-06
1.02445e-06
1.0231e-06
1.02311e-06
1.02311e-06
1.02311e-06
1.02311e-06
1.02311e-06
1.0231e-06
1.02467e-06
1.02488e-06
1.02558e-06
1.02542e-06
1.02475e-06
1.02443e-06
1.0231e-06
1.0231e-06
1.02311e-06
1.0231e-06
1.0231e-06
1.02463e-06
1.0248e-06
1.02493e-06
1.02541e-06
1.02475e-06
1.02445e-06
1.0231e-06
1.0231e-06
1.0231e-06
1.02467e-06
1.0248e-06
1.02491e-06
1.02556e-06
1.02542e-06
1.02484e-06
1.02489e-06
1.02488e-06
1.02488e-06
1.02488e-06
1.02493e-06
1.02556e-06
1.02544e-06
1.02558e-06
1.0256e-06
1.0256e-06
1.02558e-06
1.01631e-06
1.01555e-06
1.01548e-06
1.01553e-06
1.01631e-06
1.01634e-06
1.01633e-06
1.01565e-06
1.01522e-06
1.01401e-06
1.01401e-06
1.01401e-06
1.01537e-06
1.01567e-06
1.01633e-06
1.01565e-06
1.01518e-06
1.01401e-06
1.01402e-06
1.01402e-06
1.01402e-06
1.01401e-06
1.01534e-06
1.01567e-06
1.01633e-06
1.01631e-06
1.01522e-06
1.01401e-06
1.01402e-06
1.01402e-06
1.01402e-06
1.01402e-06
1.01402e-06
1.01401e-06
1.01537e-06
1.01575e-06
1.01636e-06
1.01555e-06
1.01401e-06
1.01402e-06
1.01402e-06
1.01402e-06
1.01402e-06
1.01402e-06
1.01402e-06
1.01402e-06
1.01401e-06
1.0158e-06
1.0165e-06
1.01548e-06
1.01401e-06
1.01402e-06
1.01402e-06
1.01402e-06
1.01402e-06
1.01402e-06
1.01402e-06
1.01402e-06
1.01401e-06
1.01579e-06
1.01652e-06
1.01553e-06
1.01401e-06
1.01402e-06
1.01402e-06
1.01402e-06
1.01402e-06
1.01402e-06
1.01402e-06
1.01402e-06
1.01401e-06
1.0158e-06
1.01652e-06
1.01631e-06
1.01537e-06
1.01401e-06
1.01402e-06
1.01402e-06
1.01402e-06
1.01402e-06
1.01402e-06
1.01401e-06
1.01558e-06
1.0158e-06
1.01649e-06
1.01634e-06
1.01567e-06
1.01534e-06
1.01401e-06
1.01402e-06
1.01402e-06
1.01402e-06
1.01401e-06
1.01555e-06
1.01572e-06
1.01585e-06
1.01633e-06
1.01567e-06
1.01537e-06
1.01401e-06
1.01401e-06
1.01401e-06
1.01558e-06
1.01572e-06
1.01582e-06
1.01648e-06
1.01633e-06
1.01575e-06
1.0158e-06
1.01579e-06
1.0158e-06
1.0158e-06
1.01585e-06
1.01648e-06
1.01636e-06
1.0165e-06
1.01652e-06
1.01652e-06
1.01649e-06
1.00722e-06
1.00646e-06
1.0064e-06
1.00645e-06
1.00723e-06
1.00726e-06
1.00724e-06
1.00657e-06
1.00613e-06
1.00493e-06
1.00493e-06
1.00493e-06
1.00628e-06
1.00659e-06
1.00725e-06
1.00657e-06
1.00609e-06
1.00493e-06
1.00493e-06
1.00493e-06
1.00493e-06
1.00493e-06
1.00626e-06
1.00658e-06
1.00725e-06
1.00722e-06
1.00613e-06
1.00493e-06
1.00493e-06
1.00493e-06
1.00493e-06
1.00493e-06
1.00493e-06
1.00493e-06
1.00628e-06
1.00667e-06
1.00727e-06
1.00646e-06
1.00493e-06
1.00493e-06
1.00493e-06
1.00493e-06
1.00493e-06
1.00493e-06
1.00493e-06
1.00493e-06
1.00493e-06
1.00672e-06
1.00742e-06
1.0064e-06
1.00493e-06
1.00493e-06
1.00493e-06
1.00493e-06
1.00493e-06
1.00493e-06
1.00493e-06
1.00493e-06
1.00493e-06
1.00671e-06
1.00743e-06
1.00645e-06
1.00493e-06
1.00493e-06
1.00493e-06
1.00493e-06
1.00493e-06
1.00493e-06
1.00493e-06
1.00493e-06
1.00493e-06
1.00671e-06
1.00743e-06
1.00723e-06
1.00628e-06
1.00493e-06
1.00493e-06
1.00493e-06
1.00493e-06
1.00493e-06
1.00493e-06
1.00493e-06
1.0065e-06
1.00671e-06
1.00741e-06
1.00726e-06
1.00659e-06
1.00626e-06
1.00493e-06
1.00493e-06
1.00493e-06
1.00493e-06
1.00493e-06
1.00646e-06
1.00663e-06
1.00676e-06
1.00725e-06
1.00658e-06
1.00628e-06
1.00493e-06
1.00493e-06
1.00493e-06
1.0065e-06
1.00663e-06
1.00674e-06
1.00739e-06
1.00725e-06
1.00667e-06
1.00672e-06
1.00671e-06
1.00671e-06
1.00671e-06
1.00676e-06
1.00739e-06
1.00727e-06
1.00742e-06
1.00743e-06
1.00743e-06
1.00741e-06
9.9814e-07
9.97378e-07
9.97314e-07
9.97362e-07
9.98144e-07
9.98172e-07
9.98159e-07
9.97486e-07
9.97046e-07
9.95841e-07
9.95841e-07
9.95841e-07
9.97197e-07
9.97501e-07
9.98161e-07
9.97486e-07
9.9701e-07
9.95841e-07
9.95843e-07
9.95843e-07
9.95843e-07
9.95841e-07
9.97174e-07
9.97499e-07
9.98164e-07
9.9814e-07
9.97046e-07
9.95841e-07
9.95843e-07
9.95843e-07
9.95844e-07
9.95843e-07
9.95843e-07
9.95841e-07
9.97199e-07
9.97584e-07
9.98188e-07
9.97378e-07
9.95841e-07
9.95843e-07
9.95843e-07
9.95845e-07
9.95845e-07
9.95845e-07
9.95843e-07
9.95843e-07
9.95841e-07
9.97634e-07
9.98332e-07
9.97314e-07
9.95841e-07
9.95843e-07
9.95844e-07
9.95845e-07
9.95845e-07
9.95845e-07
9.95844e-07
9.95843e-07
9.95841e-07
9.97623e-07
9.98347e-07
9.97362e-07
9.95841e-07
9.95843e-07
9.95843e-07
9.95845e-07
9.95845e-07
9.95845e-07
9.95843e-07
9.95843e-07
9.95841e-07
9.97627e-07
9.98347e-07
9.98144e-07
9.97197e-07
9.95841e-07
9.95843e-07
9.95843e-07
9.95844e-07
9.95843e-07
9.95843e-07
9.95841e-07
9.97411e-07
9.9763e-07
9.98325e-07
9.98172e-07
9.97501e-07
9.97174e-07
9.95841e-07
9.95843e-07
9.95843e-07
9.95843e-07
9.95841e-07
9.97379e-07
9.97549e-07
9.97677e-07
9.98161e-07
9.97499e-07
9.97199e-07
9.95841e-07
9.95841e-07
9.95841e-07
9.97411e-07
9.97549e-07
9.97653e-07
9.98307e-07
9.98164e-07
9.97584e-07
9.97634e-07
9.97623e-07
9.97627e-07
9.9763e-07
9.97677e-07
9.98307e-07
9.98188e-07
9.98332e-07
9.98347e-07
9.98347e-07
9.98325e-07
9.89056e-07
9.88293e-07
9.88229e-07
9.88278e-07
9.8906e-07
9.89088e-07
9.89075e-07
9.88401e-07
9.87962e-07
9.86756e-07
9.86757e-07
9.86756e-07
9.88112e-07
9.88416e-07
9.89077e-07
9.88401e-07
9.87926e-07
9.86756e-07
9.86758e-07
9.86757e-07
9.86758e-07
9.86756e-07
9.88089e-07
9.88414e-07
9.8908e-07
9.89055e-07
9.87962e-07
9.86756e-07
9.86758e-07
9.86757e-07
9.86758e-07
9.86757e-07
9.86758e-07
9.86756e-07
9.88114e-07
9.88499e-07
9.89104e-07
9.88293e-07
9.86756e-07
9.86758e-07
9.86758e-07
9.86759e-07
9.86758e-07
9.86759e-07
9.86758e-07
9.86758e-07
9.86756e-07
9.88549e-07
9.89248e-07
9.88229e-07
9.86757e-07
9.86757e-07
9.86758e-07
9.86758e-07
9.86759e-07
9.86758e-07
9.86758e-07
9.86757e-07
9.86757e-07
9.88538e-07
9.89262e-07
9.88278e-07
9.86756e-07
9.86758e-07
9.86757e-07
9.86759e-07
9.86758e-07
9.86759e-07
9.86758e-07
9.86758e-07
9.86756e-07
9.88542e-07
9.89263e-07
9.89059e-07
9.88112e-07
9.86756e-07
9.86758e-07
9.86758e-07
9.86758e-07
9.86757e-07
9.86758e-07
9.86756e-07
9.88327e-07
9.88545e-07
9.8924e-07
9.89088e-07
9.88416e-07
9.88089e-07
9.86756e-07
9.86758e-07
9.86757e-07
9.86758e-07
9.86756e-07
9.88294e-07
9.88464e-07
9.88593e-07
9.89077e-07
9.88414e-07
9.88114e-07
9.86756e-07
9.86757e-07
9.86756e-07
9.88327e-07
9.88464e-07
9.88569e-07
9.89223e-07
9.8908e-07
9.88499e-07
9.88549e-07
9.88538e-07
9.88542e-07
9.88545e-07
9.88593e-07
9.89223e-07
9.89104e-07
9.89248e-07
9.89262e-07
9.89263e-07
9.8924e-07
9.79971e-07
9.79209e-07
9.79145e-07
9.79193e-07
9.79975e-07
9.80003e-07
9.7999e-07
9.79317e-07
9.78877e-07
9.77671e-07
9.77672e-07
9.77671e-07
9.79028e-07
9.79332e-07
9.79992e-07
9.79317e-07
9.78841e-07
9.77672e-07
9.77673e-07
9.77672e-07
9.77673e-07
9.77672e-07
9.79005e-07
9.7933e-07
9.79996e-07
9.79971e-07
9.78877e-07
9.77672e-07
9.77673e-07
9.77672e-07
9.77673e-07
9.77672e-07
9.77673e-07
9.77672e-07
9.7903e-07
9.79415e-07
9.8002e-07
9.79209e-07
9.77671e-07
9.77673e-07
9.77672e-07
9.77674e-07
9.77673e-07
9.77674e-07
9.77672e-07
9.77673e-07
9.77671e-07
9.79465e-07
9.80163e-07
9.79145e-07
9.77672e-07
9.77672e-07
9.77673e-07
9.77673e-07
9.77673e-07
9.77673e-07
9.77673e-07
9.77672e-07
9.77672e-07
9.79454e-07
9.80178e-07
9.79193e-07
9.77671e-07
9.77673e-07
9.77672e-07
9.77674e-07
9.77673e-07
9.77674e-07
9.77672e-07
9.77673e-07
9.77671e-07
9.79458e-07
9.80178e-07
9.79975e-07
9.79027e-07
9.77672e-07
9.77673e-07
9.77672e-07
9.77673e-07
9.77672e-07
9.77673e-07
9.77672e-07
9.79243e-07
9.79461e-07
9.80156e-07
9.80003e-07
9.79332e-07
9.79005e-07
9.77672e-07
9.77673e-07
9.77672e-07
9.77673e-07
9.77672e-07
9.7921e-07
9.7938e-07
9.79509e-07
9.79992e-07
9.7933e-07
9.7903e-07
9.77671e-07
9.77672e-07
9.77671e-07
9.79243e-07
9.7938e-07
9.79484e-07
9.80138e-07
9.79996e-07
9.79415e-07
9.79465e-07
9.79454e-07
9.79458e-07
9.79461e-07
9.79509e-07
9.80138e-07
9.80019e-07
9.80163e-07
9.80178e-07
9.80178e-07
9.80156e-07
9.70887e-07
9.70124e-07
9.70061e-07
9.70109e-07
9.70891e-07
9.70919e-07
9.70906e-07
9.70232e-07
9.69793e-07
9.68587e-07
9.68587e-07
9.68587e-07
9.69943e-07
9.70248e-07
9.70908e-07
9.70232e-07
9.69757e-07
9.68587e-07
9.68589e-07
9.68588e-07
9.68589e-07
9.68587e-07
9.6992e-07
9.70245e-07
9.70911e-07
9.70887e-07
9.69793e-07
9.68587e-07
9.68588e-07
9.68588e-07
9.68588e-07
9.68588e-07
9.68588e-07
9.68587e-07
9.69945e-07
9.70331e-07
9.70935e-07
9.70124e-07
9.68587e-07
9.68589e-07
9.68588e-07
9.68589e-07
9.68588e-07
9.68589e-07
9.68588e-07
9.68589e-07
9.68587e-07
9.7038e-07
9.71079e-07
9.7006e-07
9.68587e-07
9.68588e-07
9.68588e-07
9.68588e-07
9.68588e-07
9.68588e-07
9.68588e-07
9.68588e-07
9.68587e-07
9.7037e-07
9.71093e-07
9.70109e-07
9.68587e-07
9.68589e-07
9.68588e-07
9.68589e-07
9.68588e-07
9.68589e-07
9.68588e-07
9.68589e-07
9.68587e-07
9.70373e-07
9.71094e-07
9.70891e-07
9.69943e-07
9.68587e-07
9.68588e-07
9.68588e-07
9.68588e-07
9.68588e-07
9.68588e-07
9.68587e-07
9.70158e-07
9.70376e-07
9.71072e-07
9.70919e-07
9.70248e-07
9.6992e-07
9.68587e-07
9.68589e-07
9.68588e-07
9.68589e-07
9.68587e-07
9.70125e-07
9.70295e-07
9.70424e-07
9.70908e-07
9.70245e-07
9.69945e-07
9.68587e-07
9.68587e-07
9.68587e-07
9.70158e-07
9.70295e-07
9.704e-07
9.71054e-07
9.70911e-07
9.70331e-07
9.7038e-07
9.7037e-07
9.70373e-07
9.70376e-07
9.70424e-07
9.71054e-07
9.70935e-07
9.71079e-07
9.71093e-07
9.71094e-07
9.71072e-07
9.61802e-07
9.6104e-07
9.60976e-07
9.61024e-07
9.61806e-07
9.61834e-07
9.61821e-07
9.61148e-07
9.60708e-07
9.59502e-07
9.59503e-07
9.59502e-07
9.60859e-07
9.61163e-07
9.61823e-07
9.61148e-07
9.60672e-07
9.59503e-07
9.59504e-07
9.59503e-07
9.59504e-07
9.59503e-07
9.60836e-07
9.61161e-07
9.61827e-07
9.61802e-07
9.60709e-07
9.59503e-07
9.59504e-07
9.59503e-07
9.59503e-07
9.59503e-07
9.59504e-07
9.59503e-07
9.60861e-07
9.61246e-07
9.61851e-07
9.6104e-07
9.59502e-07
9.59504e-07
9.59503e-07
9.59504e-07
9.59503e-07
9.59504e-07
9.59503e-07
9.59504e-07
9.59502e-07
9.61296e-07
9.61994e-07
9.60976e-07
9.59503e-07
9.59503e-07
9.59503e-07
9.59503e-07
9.59504e-07
9.59503e-07
9.59503e-07
9.59503e-07
9.59503e-07
9.61285e-07
9.62009e-07
9.61024e-07
9.59502e-07
9.59504e-07
9.59503e-07
9.59504e-07
9.59503e-07
9.59504e-07
9.59503e-07
9.59504e-07
9.59502e-07
9.61289e-07
9.6201e-07
9.61806e-07
9.60859e-07
9.59503e-07
9.59504e-07
9.59503e-07
9.59503e-07
9.59503e-07
9.59504e-07
9.59503e-07
9.61074e-07
9.61292e-07
9.61987e-07
9.61834e-07
9.61163e-07
9.60836e-07
9.59503e-07
9.59504e-07
9.59503e-07
9.59504e-07
9.59503e-07
9.6104e-07
9.61211e-07
9.6134e-07
9.61823e-07
9.61161e-07
9.60861e-07
9.59502e-07
9.59503e-07
9.59502e-07
9.61074e-07
9.61211e-07
9.61315e-07
9.6197e-07
9.61827e-07
9.61246e-07
9.61296e-07
9.61285e-07
9.61289e-07
9.61292e-07
9.6134e-07
9.61969e-07
9.61851e-07
9.61994e-07
9.62009e-07
9.6201e-07
9.61987e-07
9.52718e-07
9.51956e-07
9.51892e-07
9.5194e-07
9.52722e-07
9.5275e-07
9.52737e-07
9.52064e-07
9.51624e-07
9.50418e-07
9.50419e-07
9.50418e-07
9.51774e-07
9.52079e-07
9.52739e-07
9.52064e-07
9.51588e-07
9.50418e-07
9.5042e-07
9.50419e-07
9.5042e-07
9.50418e-07
9.51751e-07
9.52076e-07
9.52742e-07
9.52718e-07
9.51624e-07
9.50418e-07
9.50419e-07
9.50418e-07
9.50419e-07
9.50418e-07
9.50419e-07
9.50418e-07
9.51776e-07
9.52162e-07
9.52766e-07
9.51956e-07
9.50418e-07
9.5042e-07
9.50418e-07
9.5042e-07
9.50419e-07
9.5042e-07
9.50418e-07
9.5042e-07
9.50418e-07
9.52212e-07
9.5291e-07
9.51892e-07
9.50419e-07
9.50419e-07
9.50419e-07
9.50419e-07
9.50419e-07
9.50419e-07
9.50419e-07
9.50419e-07
9.50418e-07
9.52201e-07
9.52924e-07
9.5194e-07
9.50418e-07
9.5042e-07
9.50418e-07
9.5042e-07
9.50419e-07
9.5042e-07
9.50418e-07
9.5042e-07
9.50418e-07
9.52205e-07
9.52925e-07
9.52722e-07
9.51774e-07
9.50418e-07
9.50419e-07
9.50418e-07
9.50419e-07
9.50418e-07
9.50419e-07
9.50418e-07
9.51989e-07
9.52208e-07
9.52903e-07
9.5275e-07
9.52079e-07
9.51751e-07
9.50418e-07
9.5042e-07
9.50419e-07
9.5042e-07
9.50418e-07
9.51956e-07
9.52127e-07
9.52255e-07
9.52739e-07
9.52076e-07
9.51776e-07
9.50418e-07
9.50419e-07
9.50418e-07
9.51989e-07
9.52127e-07
9.52231e-07
9.52885e-07
9.52742e-07
9.52162e-07
9.52212e-07
9.52201e-07
9.52205e-07
9.52208e-07
9.52255e-07
9.52885e-07
9.52766e-07
9.5291e-07
9.52925e-07
9.52925e-07
9.52903e-07
9.43634e-07
9.42871e-07
9.42807e-07
9.42856e-07
9.43637e-07
9.43666e-07
9.43653e-07
9.42979e-07
9.4254e-07
9.41334e-07
9.41334e-07
9.41333e-07
9.4269e-07
9.42994e-07
9.43655e-07
9.42979e-07
9.42504e-07
9.41334e-07
9.41335e-07
9.41334e-07
9.41335e-07
9.41334e-07
9.42667e-07
9.42992e-07
9.43658e-07
9.43634e-07
9.4254e-07
9.41334e-07
9.41335e-07
9.41334e-07
9.41334e-07
9.41334e-07
9.41335e-07
9.41334e-07
9.42692e-07
9.43077e-07
9.43682e-07
9.42871e-07
9.41334e-07
9.41335e-07
9.41334e-07
9.41335e-07
9.41334e-07
9.41335e-07
9.41334e-07
9.41335e-07
9.41333e-07
9.43127e-07
9.43825e-07
9.42807e-07
9.41334e-07
9.41334e-07
9.41334e-07
9.41334e-07
9.41334e-07
9.41334e-07
9.41334e-07
9.41334e-07
9.41334e-07
9.43116e-07
9.4384e-07
9.42856e-07
9.41334e-07
9.41335e-07
9.41334e-07
9.41335e-07
9.41334e-07
9.41335e-07
9.41334e-07
9.41335e-07
9.41333e-07
9.4312e-07
9.43841e-07
9.43638e-07
9.4269e-07
9.41334e-07
9.41335e-07
9.41334e-07
9.41334e-07
9.41334e-07
9.41335e-07
9.41334e-07
9.42905e-07
9.43123e-07
9.43818e-07
9.43666e-07
9.42995e-07
9.42667e-07
9.41334e-07
9.41335e-07
9.41334e-07
9.41335e-07
9.41334e-07
9.42872e-07
9.43042e-07
9.43171e-07
9.43655e-07
9.42992e-07
9.42692e-07
9.41334e-07
9.41334e-07
9.41333e-07
9.42905e-07
9.43042e-07
9.43147e-07
9.43801e-07
9.43658e-07
9.43078e-07
9.43127e-07
9.43116e-07
9.4312e-07
9.43123e-07
9.43171e-07
9.43801e-07
9.43682e-07
9.43826e-07
9.4384e-07
9.43841e-07
9.43818e-07
9.34549e-07
9.33787e-07
9.33723e-07
9.33771e-07
9.34553e-07
9.34581e-07
9.34568e-07
9.33895e-07
9.33455e-07
9.32249e-07
9.3225e-07
9.32249e-07
9.33605e-07
9.3391e-07
9.3457e-07
9.33895e-07
9.33419e-07
9.32249e-07
9.32251e-07
9.3225e-07
9.32251e-07
9.32249e-07
9.33583e-07
9.33908e-07
9.34574e-07
9.34549e-07
9.33455e-07
9.32249e-07
9.3225e-07
9.3225e-07
9.3225e-07
9.3225e-07
9.3225e-07
9.32249e-07
9.33608e-07
9.33993e-07
9.34597e-07
9.33787e-07
9.32249e-07
9.32251e-07
9.3225e-07
9.32251e-07
9.3225e-07
9.32251e-07
9.3225e-07
9.32251e-07
9.32249e-07
9.34043e-07
9.34741e-07
9.33723e-07
9.3225e-07
9.3225e-07
9.3225e-07
9.3225e-07
9.3225e-07
9.3225e-07
9.3225e-07
9.3225e-07
9.3225e-07
9.34032e-07
9.34756e-07
9.33771e-07
9.32249e-07
9.32251e-07
9.3225e-07
9.32251e-07
9.3225e-07
9.32251e-07
9.3225e-07
9.32251e-07
9.32249e-07
9.34036e-07
9.34756e-07
9.34553e-07
9.33606e-07
9.32249e-07
9.3225e-07
9.3225e-07
9.3225e-07
9.3225e-07
9.3225e-07
9.32249e-07
9.33821e-07
9.34039e-07
9.34734e-07
9.34581e-07
9.3391e-07
9.33583e-07
9.32249e-07
9.32251e-07
9.3225e-07
9.32251e-07
9.32249e-07
9.33787e-07
9.33958e-07
9.34087e-07
9.3457e-07
9.33908e-07
9.33608e-07
9.32249e-07
9.3225e-07
9.32249e-07
9.33821e-07
9.33958e-07
9.34062e-07
9.34716e-07
9.34574e-07
9.33993e-07
9.34043e-07
9.34032e-07
9.34036e-07
9.34039e-07
9.34087e-07
9.34716e-07
9.34597e-07
9.34741e-07
9.34756e-07
9.34756e-07
9.34734e-07
9.25465e-07
9.24702e-07
9.24639e-07
9.24687e-07
9.25469e-07
9.25497e-07
9.25484e-07
9.2481e-07
9.24371e-07
9.23165e-07
9.23165e-07
9.23165e-07
9.24521e-07
9.24826e-07
9.25486e-07
9.2481e-07
9.24335e-07
9.23165e-07
9.23166e-07
9.23165e-07
9.23166e-07
9.23165e-07
9.24498e-07
9.24823e-07
9.25489e-07
9.25465e-07
9.24371e-07
9.23165e-07
9.23166e-07
9.23165e-07
9.23166e-07
9.23165e-07
9.23166e-07
9.23165e-07
9.24523e-07
9.24909e-07
9.25513e-07
9.24702e-07
9.23165e-07
9.23166e-07
9.23165e-07
9.23166e-07
9.23165e-07
9.23166e-07
9.23165e-07
9.23166e-07
9.23165e-07
9.24958e-07
9.25657e-07
9.24638e-07
9.23165e-07
9.23165e-07
9.23165e-07
9.23165e-07
9.23166e-07
9.23165e-07
9.23166e-07
9.23165e-07
9.23165e-07
9.24948e-07
9.25671e-07
9.24687e-07
9.23165e-07
9.23166e-07
9.23165e-07
9.23166e-07
9.23165e-07
9.23166e-07
9.23165e-07
9.23166e-07
9.23165e-07
9.24951e-07
9.25672e-07
9.25469e-07
9.24521e-07
9.23165e-07
9.23166e-07
9.23165e-07
9.23166e-07
9.23165e-07
9.23166e-07
9.23165e-07
9.24736e-07
9.24954e-07
9.2565e-07
9.25497e-07
9.24826e-07
9.24498e-07
9.23165e-07
9.23166e-07
9.23165e-07
9.23166e-07
9.23165e-07
9.24703e-07
9.24874e-07
9.25002e-07
9.25486e-07
9.24823e-07
9.24523e-07
9.23165e-07
9.23165e-07
9.23165e-07
9.24736e-07
9.24874e-07
9.24978e-07
9.25632e-07
9.25489e-07
9.24909e-07
9.24958e-07
9.24948e-07
9.24951e-07
9.24954e-07
9.25002e-07
9.25632e-07
9.25513e-07
9.25657e-07
9.25671e-07
9.25672e-07
9.2565e-07
9.1638e-07
9.15618e-07
9.15554e-07
9.15602e-07
9.16384e-07
9.16412e-07
9.16399e-07
9.15726e-07
9.15286e-07
9.1408e-07
9.14081e-07
9.1408e-07
9.15437e-07
9.15741e-07
9.16401e-07
9.15726e-07
9.1525e-07
9.14081e-07
9.14082e-07
9.14081e-07
9.14082e-07
9.14081e-07
9.15414e-07
9.15739e-07
9.16405e-07
9.1638e-07
9.15286e-07
9.14081e-07
9.14081e-07
9.14081e-07
9.14081e-07
9.14081e-07
9.14081e-07
9.14081e-07
9.15439e-07
9.15824e-07
9.16429e-07
9.15618e-07
9.1408e-07
9.14082e-07
9.14081e-07
9.14082e-07
9.14081e-07
9.14082e-07
9.14081e-07
9.14082e-07
9.1408e-07
9.15874e-07
9.16572e-07
9.15554e-07
9.14081e-07
9.14081e-07
9.14081e-07
9.14081e-07
9.14081e-07
9.14081e-07
9.14081e-07
9.14081e-07
9.14081e-07
9.15863e-07
9.16587e-07
9.15602e-07
9.1408e-07
9.14082e-07
9.14081e-07
9.14082e-07
9.14081e-07
9.14082e-07
9.14081e-07
9.14082e-07
9.1408e-07
9.15867e-07
9.16588e-07
9.16384e-07
9.15437e-07
9.14081e-07
9.14081e-07
9.14081e-07
9.14081e-07
9.14081e-07
9.14081e-07
9.14081e-07
9.15652e-07
9.1587e-07
9.16565e-07
9.16412e-07
9.15741e-07
9.15414e-07
9.14081e-07
9.14082e-07
9.14081e-07
9.14082e-07
9.14081e-07
9.15618e-07
9.15789e-07
9.15918e-07
9.16401e-07
9.15739e-07
9.15439e-07
9.1408e-07
9.14081e-07
9.1408e-07
9.15652e-07
9.15789e-07
9.15893e-07
9.16548e-07
9.16405e-07
9.15824e-07
9.15874e-07
9.15863e-07
9.15867e-07
9.1587e-07
9.15918e-07
9.16547e-07
9.16429e-07
9.16572e-07
9.16587e-07
9.16587e-07
9.16565e-07
9.07296e-07
9.06534e-07
9.0647e-07
9.06518e-07
9.073e-07
9.07328e-07
9.07315e-07
9.06642e-07
9.06202e-07
9.04996e-07
9.04996e-07
9.04996e-07
9.06352e-07
9.06657e-07
9.07317e-07
9.06642e-07
9.06166e-07
9.04996e-07
9.04998e-07
9.04997e-07
9.04998e-07
9.04996e-07
9.06329e-07
9.06654e-07
9.0732e-07
9.07296e-07
9.06202e-07
9.04996e-07
9.04997e-07
9.04996e-07
9.04997e-07
9.04996e-07
9.04997e-07
9.04996e-07
9.06354e-07
9.0674e-07
9.07344e-07
9.06533e-07
9.04996e-07
9.04998e-07
9.04996e-07
9.04997e-07
9.04996e-07
9.04997e-07
9.04996e-07
9.04998e-07
9.04996e-07
9.0679e-07
9.07488e-07
9.0647e-07
9.04996e-07
9.04997e-07
9.04997e-07
9.04996e-07
9.04997e-07
9.04996e-07
9.04997e-07
9.04997e-07
9.04996e-07
9.06779e-07
9.07502e-07
9.06518e-07
9.04996e-07
9.04998e-07
9.04996e-07
9.04997e-07
9.04996e-07
9.04997e-07
9.04996e-07
9.04998e-07
9.04996e-07
9.06783e-07
9.07503e-07
9.073e-07
9.06352e-07
9.04996e-07
9.04997e-07
9.04996e-07
9.04997e-07
9.04996e-07
9.04997e-07
9.04996e-07
9.06567e-07
9.06786e-07
9.07481e-07
9.07328e-07
9.06657e-07
9.06329e-07
9.04996e-07
9.04998e-07
9.04997e-07
9.04998e-07
9.04996e-07
9.06534e-07
9.06705e-07
9.06833e-07
9.07317e-07
9.06654e-07
9.06354e-07
9.04996e-07
9.04996e-07
9.04996e-07
9.06567e-07
9.06705e-07
9.06809e-07
9.07463e-07
9.0732e-07
9.0674e-07
9.06789e-07
9.06779e-07
9.06782e-07
9.06785e-07
9.06833e-07
9.07463e-07
9.07344e-07
9.07488e-07
9.07502e-07
9.07503e-07
9.07481e-07
8.98211e-07
8.97449e-07
8.97385e-07
8.97434e-07
8.98215e-07
8.98244e-07
8.98231e-07
8.97557e-07
8.97118e-07
8.95911e-07
8.95912e-07
8.95911e-07
8.97268e-07
8.97572e-07
8.98233e-07
8.97557e-07
8.97081e-07
8.95912e-07
8.95913e-07
8.95912e-07
8.95913e-07
8.95912e-07
8.97245e-07
8.9757e-07
8.98236e-07
8.98211e-07
8.97118e-07
8.95912e-07
8.95912e-07
8.95912e-07
8.95912e-07
8.95912e-07
8.95912e-07
8.95912e-07
8.9727e-07
8.97655e-07
8.9826e-07
8.97449e-07
8.95911e-07
8.95913e-07
8.95912e-07
8.95913e-07
8.95912e-07
8.95913e-07
8.95912e-07
8.95913e-07
8.95911e-07
8.97705e-07
8.98403e-07
8.97385e-07
8.95912e-07
8.95912e-07
8.95912e-07
8.95912e-07
8.95912e-07
8.95912e-07
8.95912e-07
8.95912e-07
8.95912e-07
8.97694e-07
8.98418e-07
8.97433e-07
8.95911e-07
8.95913e-07
8.95912e-07
8.95913e-07
8.95912e-07
8.95913e-07
8.95912e-07