/*--------------------------------*- C++ -*----------------------------------*\
| =========                 |                                                 |
| \\      /  F ield         | OpenFOAM: The Open Source CFD Toolbox           |
|  \\    /   O peration     | Version:  v2012                                 |
|   \\  /    A nd           | Website:  www.openfoam.com                      |
|    \\/     M anipulation  |                                                 |
\*---------------------------------------------------------------------------*/
FoamFile
{
    version     2.0;
    format      ascii;
    class       volScalarField;
    location    "58";
    object      p;
}
// * * * * * * * * * * * * * * * * * * * * * * * * * * * * * * * * * * * * * //

dimensions      [0 2 -2 0 0 0 0];


internalField   nonuniform List<scalar> 
292667
(
1.13471e-06
1.12552e-06
1.1248e-06
1.12487e-06
1.12584e-06
1.13559e-06
1.12573e-06
1.12325e-06
1.12179e-06
1.12119e-06
1.12126e-06
1.12204e-06
1.12372e-06
1.12643e-06
1.12573e-06
1.12252e-06
1.12051e-06
1.1194e-06
1.11893e-06
1.11899e-06
1.1196e-06
1.12089e-06
1.12315e-06
1.12662e-06
1.13471e-06
1.12325e-06
1.12051e-06
1.11888e-06
1.11796e-06
1.11757e-06
1.11763e-06
1.11813e-06
1.11919e-06
1.12104e-06
1.12411e-06
1.13427e-06
1.12552e-06
1.12179e-06
1.1194e-06
1.11796e-06
1.11715e-06
1.1168e-06
1.11685e-06
1.1173e-06
1.11825e-06
1.11988e-06
1.12258e-06
1.12901e-06
1.1248e-06
1.12119e-06
1.11893e-06
1.11757e-06
1.1168e-06
1.11646e-06
1.11651e-06
1.11695e-06
1.11785e-06
1.11939e-06
1.12196e-06
1.12743e-06
1.12487e-06
1.12126e-06
1.11899e-06
1.11763e-06
1.11685e-06
1.11651e-06
1.11656e-06
1.117e-06
1.1179e-06
1.11946e-06
1.12204e-06
1.12774e-06
1.12584e-06
1.12204e-06
1.1196e-06
1.11813e-06
1.1173e-06
1.11695e-06
1.117e-06
1.11746e-06
1.11843e-06
1.1201e-06
1.12288e-06
1.12931e-06
1.13559e-06
1.12372e-06
1.12089e-06
1.11919e-06
1.11825e-06
1.11785e-06
1.1179e-06
1.11843e-06
1.11953e-06
1.12147e-06
1.12464e-06
1.13414e-06
1.12643e-06
1.12315e-06
1.12104e-06
1.11988e-06
1.11939e-06
1.11946e-06
1.1201e-06
1.12147e-06
1.12386e-06
1.12997e-06
1.12662e-06
1.12411e-06
1.12258e-06
1.12196e-06
1.12204e-06
1.12288e-06
1.12464e-06
1.12997e-06
1.13427e-06
1.12901e-06
1.12743e-06
1.12774e-06
1.12931e-06
1.13414e-06
1.10935e-06
1.1086e-06
1.10857e-06
1.10861e-06
1.10936e-06
1.10924e-06
1.1094e-06
1.10881e-06
1.10845e-06
1.10716e-06
1.10714e-06
1.10716e-06
1.10861e-06
1.10886e-06
1.10943e-06
1.10881e-06
1.10843e-06
1.10721e-06
1.10716e-06
1.1072e-06
1.10716e-06
1.10721e-06
1.10859e-06
1.10884e-06
1.10941e-06
1.10935e-06
1.10845e-06
1.10721e-06
1.10715e-06
1.10718e-06
1.10716e-06
1.10718e-06
1.10715e-06
1.10721e-06
1.10858e-06
1.10887e-06
1.10944e-06
1.1086e-06
1.10716e-06
1.10716e-06
1.10718e-06
1.10714e-06
1.10714e-06
1.10714e-06
1.10718e-06
1.10716e-06
1.10716e-06
1.10901e-06
1.10961e-06
1.10857e-06
1.10714e-06
1.1072e-06
1.10716e-06
1.10714e-06
1.10713e-06
1.10714e-06
1.10716e-06
1.1072e-06
1.10714e-06
1.10903e-06
1.10953e-06
1.10861e-06
1.10716e-06
1.10716e-06
1.10718e-06
1.10714e-06
1.10714e-06
1.10714e-06
1.10718e-06
1.10716e-06
1.10716e-06
1.10903e-06
1.10955e-06
1.10936e-06
1.10861e-06
1.10721e-06
1.10715e-06
1.10718e-06
1.10716e-06
1.10718e-06
1.10715e-06
1.10721e-06
1.10877e-06
1.10892e-06
1.10956e-06
1.10924e-06
1.10886e-06
1.10859e-06
1.10721e-06
1.10716e-06
1.1072e-06
1.10716e-06
1.10721e-06
1.10874e-06
1.10889e-06
1.1089e-06
1.10943e-06
1.10884e-06
1.10858e-06
1.10716e-06
1.10714e-06
1.10716e-06
1.10877e-06
1.10889e-06
1.10894e-06
1.10954e-06
1.10941e-06
1.10887e-06
1.10901e-06
1.10903e-06
1.10903e-06
1.10892e-06
1.1089e-06
1.10954e-06
1.10944e-06
1.10961e-06
1.10953e-06
1.10955e-06
1.10956e-06
1.09993e-06
1.09913e-06
1.09907e-06
1.09912e-06
1.09992e-06
1.09996e-06
1.09995e-06
1.09925e-06
1.09883e-06
1.09759e-06
1.09759e-06
1.09759e-06
1.09899e-06
1.09928e-06
1.09994e-06
1.09925e-06
1.09882e-06
1.09763e-06
1.09763e-06
1.09767e-06
1.09763e-06
1.09763e-06
1.09899e-06
1.09928e-06
1.09994e-06
1.09993e-06
1.09883e-06
1.09763e-06
1.09765e-06
1.0977e-06
1.0977e-06
1.0977e-06
1.09765e-06
1.09763e-06
1.099e-06
1.09934e-06
1.09997e-06
1.09913e-06
1.09759e-06
1.09763e-06
1.0977e-06
1.09771e-06
1.09773e-06
1.09771e-06
1.0977e-06
1.09763e-06
1.09759e-06
1.0994e-06
1.10011e-06
1.09907e-06
1.09759e-06
1.09767e-06
1.0977e-06
1.09773e-06
1.09773e-06
1.09773e-06
1.0977e-06
1.09767e-06
1.09759e-06
1.0994e-06
1.10013e-06
1.09912e-06
1.09759e-06
1.09763e-06
1.0977e-06
1.09771e-06
1.09773e-06
1.09771e-06
1.0977e-06
1.09763e-06
1.09759e-06
1.0994e-06
1.10013e-06
1.09992e-06
1.09899e-06
1.09763e-06
1.09765e-06
1.0977e-06
1.0977e-06
1.0977e-06
1.09765e-06
1.09763e-06
1.0992e-06
1.09939e-06
1.10011e-06
1.09996e-06
1.09928e-06
1.09899e-06
1.09763e-06
1.09764e-06
1.09767e-06
1.09764e-06
1.09763e-06
1.09918e-06
1.09933e-06
1.09942e-06
1.09994e-06
1.09928e-06
1.099e-06
1.09759e-06
1.09759e-06
1.09759e-06
1.0992e-06
1.09933e-06
1.0994e-06
1.10009e-06
1.09994e-06
1.09934e-06
1.0994e-06
1.0994e-06
1.0994e-06
1.09939e-06
1.09942e-06
1.10009e-06
1.09997e-06
1.10011e-06
1.10013e-06
1.10013e-06
1.10011e-06
1.09052e-06
1.08972e-06
1.08965e-06
1.0897e-06
1.09052e-06
1.09055e-06
1.09054e-06
1.08983e-06
1.08939e-06
1.08813e-06
1.08813e-06
1.08813e-06
1.08954e-06
1.08985e-06
1.09054e-06
1.08983e-06
1.08936e-06
1.08815e-06
1.08817e-06
1.08819e-06
1.08817e-06
1.08815e-06
1.08953e-06
1.08985e-06
1.09054e-06
1.09052e-06
1.08939e-06
1.08815e-06
1.08818e-06
1.08821e-06
1.08821e-06
1.08821e-06
1.08818e-06
1.08815e-06
1.08955e-06
1.08993e-06
1.09057e-06
1.08972e-06
1.08813e-06
1.08817e-06
1.08821e-06
1.08823e-06
1.08824e-06
1.08823e-06
1.08821e-06
1.08817e-06
1.08813e-06
1.08997e-06
1.09071e-06
1.08965e-06
1.08813e-06
1.08819e-06
1.08821e-06
1.08824e-06
1.08825e-06
1.08824e-06
1.08821e-06
1.08819e-06
1.08813e-06
1.08996e-06
1.09072e-06
1.0897e-06
1.08813e-06
1.08817e-06
1.08821e-06
1.08823e-06
1.08824e-06
1.08823e-06
1.08821e-06
1.08817e-06
1.08813e-06
1.08997e-06
1.09072e-06
1.09052e-06
1.08954e-06
1.08815e-06
1.08818e-06
1.08821e-06
1.08821e-06
1.08821e-06
1.08818e-06
1.08815e-06
1.08976e-06
1.08997e-06
1.0907e-06
1.09055e-06
1.08985e-06
1.08953e-06
1.08815e-06
1.08817e-06
1.08819e-06
1.08817e-06
1.08815e-06
1.08973e-06
1.08989e-06
1.09001e-06
1.09054e-06
1.08985e-06
1.08955e-06
1.08813e-06
1.08813e-06
1.08813e-06
1.08976e-06
1.08989e-06
1.08999e-06
1.09069e-06
1.09054e-06
1.08993e-06
1.08997e-06
1.08996e-06
1.08997e-06
1.08997e-06
1.09001e-06
1.09069e-06
1.09057e-06
1.09071e-06
1.09072e-06
1.09072e-06
1.0907e-06
1.08112e-06
1.08031e-06
1.08024e-06
1.08029e-06
1.08111e-06
1.08115e-06
1.08114e-06
1.08042e-06
1.07997e-06
1.0787e-06
1.0787e-06
1.0787e-06
1.08012e-06
1.08044e-06
1.08113e-06
1.08042e-06
1.07994e-06
1.07871e-06
1.07873e-06
1.07873e-06
1.07873e-06
1.07871e-06
1.0801e-06
1.08043e-06
1.08113e-06
1.08111e-06
1.07997e-06
1.07871e-06
1.07873e-06
1.07875e-06
1.07875e-06
1.07875e-06
1.07873e-06
1.07871e-06
1.08013e-06
1.08052e-06
1.08117e-06
1.08031e-06
1.0787e-06
1.07873e-06
1.07875e-06
1.07876e-06
1.07877e-06
1.07876e-06
1.07875e-06
1.07873e-06
1.0787e-06
1.08056e-06
1.0813e-06
1.08024e-06
1.0787e-06
1.07873e-06
1.07875e-06
1.07877e-06
1.07878e-06
1.07877e-06
1.07875e-06
1.07873e-06
1.0787e-06
1.08055e-06
1.08131e-06
1.08029e-06
1.0787e-06
1.07873e-06
1.07875e-06
1.07876e-06
1.07877e-06
1.07876e-06
1.07875e-06
1.07873e-06
1.0787e-06
1.08055e-06
1.08132e-06
1.08111e-06
1.08012e-06
1.07871e-06
1.07873e-06
1.07875e-06
1.07875e-06
1.07875e-06
1.07873e-06
1.07871e-06
1.08033e-06
1.08056e-06
1.0813e-06
1.08115e-06
1.08044e-06
1.0801e-06
1.07871e-06
1.07873e-06
1.07873e-06
1.07873e-06
1.07871e-06
1.08031e-06
1.08048e-06
1.08061e-06
1.08113e-06
1.08043e-06
1.08013e-06
1.0787e-06
1.0787e-06
1.0787e-06
1.08034e-06
1.08048e-06
1.08058e-06
1.08128e-06
1.08113e-06
1.08052e-06
1.08056e-06
1.08055e-06
1.08055e-06
1.08056e-06
1.08061e-06
1.08128e-06
1.08117e-06
1.0813e-06
1.08131e-06
1.08132e-06
1.0813e-06
1.07171e-06
1.0709e-06
1.07083e-06
1.07088e-06
1.0717e-06
1.07174e-06
1.07173e-06
1.07101e-06
1.07056e-06
1.06929e-06
1.06929e-06
1.06929e-06
1.07071e-06
1.07103e-06
1.07172e-06
1.07101e-06
1.07053e-06
1.06929e-06
1.0693e-06
1.0693e-06
1.0693e-06
1.06929e-06
1.07069e-06
1.07102e-06
1.07173e-06
1.07171e-06
1.07056e-06
1.06929e-06
1.0693e-06
1.06931e-06
1.06931e-06
1.06931e-06
1.0693e-06
1.06929e-06
1.07071e-06
1.07111e-06
1.07176e-06
1.0709e-06
1.06929e-06
1.0693e-06
1.06931e-06
1.06932e-06
1.06933e-06
1.06932e-06
1.06931e-06
1.0693e-06
1.06929e-06
1.07115e-06
1.0719e-06
1.07083e-06
1.06929e-06
1.0693e-06
1.06931e-06
1.06933e-06
1.06933e-06
1.06933e-06
1.06931e-06
1.0693e-06
1.06929e-06
1.07114e-06
1.07191e-06
1.07088e-06
1.06929e-06
1.0693e-06
1.06931e-06
1.06932e-06
1.06933e-06
1.06932e-06
1.06931e-06
1.0693e-06
1.06929e-06
1.07114e-06
1.07191e-06
1.0717e-06
1.07071e-06
1.06929e-06
1.0693e-06
1.06931e-06
1.06931e-06
1.06931e-06
1.0693e-06
1.06929e-06
1.07092e-06
1.07115e-06
1.07189e-06
1.07174e-06
1.07103e-06
1.07069e-06
1.06929e-06
1.0693e-06
1.0693e-06
1.0693e-06
1.06929e-06
1.07089e-06
1.07107e-06
1.0712e-06
1.07172e-06
1.07102e-06
1.07071e-06
1.06929e-06
1.06929e-06
1.06929e-06
1.07092e-06
1.07107e-06
1.07118e-06
1.07187e-06
1.07173e-06
1.07111e-06
1.07115e-06
1.07114e-06
1.07114e-06
1.07115e-06
1.0712e-06
1.07187e-06
1.07176e-06
1.0719e-06
1.07191e-06
1.07191e-06
1.07189e-06
1.0623e-06
1.06149e-06
1.06142e-06
1.06147e-06
1.06229e-06
1.06233e-06
1.06232e-06
1.0616e-06
1.06115e-06
1.05987e-06
1.05987e-06
1.05987e-06
1.0613e-06
1.06162e-06
1.06231e-06
1.0616e-06
1.06112e-06
1.05987e-06
1.05988e-06
1.05988e-06
1.05988e-06
1.05987e-06
1.06128e-06
1.06161e-06
1.06232e-06
1.0623e-06
1.06115e-06
1.05987e-06
1.05988e-06
1.05989e-06
1.05989e-06
1.05989e-06
1.05988e-06
1.05987e-06
1.0613e-06
1.0617e-06
1.06235e-06
1.06149e-06
1.05987e-06
1.05988e-06
1.05989e-06
1.05989e-06
1.05989e-06
1.05989e-06
1.05989e-06
1.05988e-06
1.05987e-06
1.06174e-06
1.06249e-06
1.06142e-06
1.05987e-06
1.05988e-06
1.05989e-06
1.05989e-06
1.0599e-06
1.05989e-06
1.05989e-06
1.05988e-06
1.05987e-06
1.06173e-06
1.0625e-06
1.06147e-06
1.05987e-06
1.05988e-06
1.05989e-06
1.05989e-06
1.05989e-06
1.05989e-06
1.05989e-06
1.05988e-06
1.05987e-06
1.06173e-06
1.0625e-06
1.06229e-06
1.0613e-06
1.05987e-06
1.05988e-06
1.05989e-06
1.05989e-06
1.05989e-06
1.05988e-06
1.05987e-06
1.06151e-06
1.06174e-06
1.06248e-06
1.06233e-06
1.06162e-06
1.06128e-06
1.05987e-06
1.05988e-06
1.05988e-06
1.05988e-06
1.05987e-06
1.06148e-06
1.06166e-06
1.06179e-06
1.06231e-06
1.06161e-06
1.0613e-06
1.05987e-06
1.05987e-06
1.05987e-06
1.06151e-06
1.06166e-06
1.06177e-06
1.06246e-06
1.06232e-06
1.0617e-06
1.06174e-06
1.06173e-06
1.06173e-06
1.06174e-06
1.06179e-06
1.06246e-06
1.06235e-06
1.06249e-06
1.0625e-06
1.0625e-06
1.06248e-06
1.05289e-06
1.05208e-06
1.05201e-06
1.05206e-06
1.05288e-06
1.05292e-06
1.05291e-06
1.05219e-06
1.05174e-06
1.05046e-06
1.05046e-06
1.05046e-06
1.05189e-06
1.05221e-06
1.0529e-06
1.05219e-06
1.0517e-06
1.05046e-06
1.05046e-06
1.05046e-06
1.05046e-06
1.05046e-06
1.05187e-06
1.0522e-06
1.05291e-06
1.05289e-06
1.05174e-06
1.05046e-06
1.05047e-06
1.05047e-06
1.05047e-06
1.05047e-06
1.05047e-06
1.05046e-06
1.05189e-06
1.05229e-06
1.05294e-06
1.05208e-06
1.05046e-06
1.05046e-06
1.05047e-06
1.05047e-06
1.05047e-06
1.05047e-06
1.05047e-06
1.05046e-06
1.05046e-06
1.05233e-06
1.05308e-06
1.05201e-06
1.05046e-06
1.05046e-06
1.05047e-06
1.05047e-06
1.05047e-06
1.05047e-06
1.05047e-06
1.05046e-06
1.05046e-06
1.05232e-06
1.05309e-06
1.05206e-06
1.05046e-06
1.05046e-06
1.05047e-06
1.05047e-06
1.05047e-06
1.05047e-06
1.05047e-06
1.05046e-06
1.05046e-06
1.05232e-06
1.05309e-06
1.05288e-06
1.05189e-06
1.05046e-06
1.05047e-06
1.05047e-06
1.05047e-06
1.05047e-06
1.05047e-06
1.05046e-06
1.0521e-06
1.05233e-06
1.05307e-06
1.05292e-06
1.05221e-06
1.05187e-06
1.05046e-06
1.05046e-06
1.05047e-06
1.05046e-06
1.05046e-06
1.05207e-06
1.05225e-06
1.05238e-06
1.0529e-06
1.0522e-06
1.05189e-06
1.05046e-06
1.05046e-06
1.05046e-06
1.0521e-06
1.05225e-06
1.05236e-06
1.05306e-06
1.05291e-06
1.05229e-06
1.05233e-06
1.05232e-06
1.05232e-06
1.05233e-06
1.05238e-06
1.05306e-06
1.05294e-06
1.05308e-06
1.05309e-06
1.05309e-06
1.05307e-06
1.04348e-06
1.04267e-06
1.0426e-06
1.04265e-06
1.04347e-06
1.04351e-06
1.0435e-06
1.04278e-06
1.04233e-06
1.04105e-06
1.04105e-06
1.04105e-06
1.04248e-06
1.0428e-06
1.04349e-06
1.04278e-06
1.04229e-06
1.04105e-06
1.04105e-06
1.04105e-06
1.04105e-06
1.04105e-06
1.04246e-06
1.04279e-06
1.0435e-06
1.04348e-06
1.04233e-06
1.04105e-06
1.04105e-06
1.04105e-06
1.04105e-06
1.04105e-06
1.04105e-06
1.04105e-06
1.04248e-06
1.04288e-06
1.04353e-06
1.04267e-06
1.04105e-06
1.04105e-06
1.04105e-06
1.04106e-06
1.04106e-06
1.04106e-06
1.04105e-06
1.04105e-06
1.04105e-06
1.04292e-06
1.04367e-06
1.0426e-06
1.04105e-06
1.04105e-06
1.04105e-06
1.04106e-06
1.04106e-06
1.04106e-06
1.04105e-06
1.04105e-06
1.04105e-06
1.04291e-06
1.04368e-06
1.04265e-06
1.04105e-06
1.04105e-06
1.04105e-06
1.04106e-06
1.04106e-06
1.04106e-06
1.04105e-06
1.04105e-06
1.04105e-06
1.04291e-06
1.04368e-06
1.04347e-06
1.04248e-06
1.04105e-06
1.04105e-06
1.04105e-06
1.04105e-06
1.04105e-06
1.04105e-06
1.04105e-06
1.04269e-06
1.04292e-06
1.04366e-06
1.04351e-06
1.0428e-06
1.04246e-06
1.04105e-06
1.04105e-06
1.04105e-06
1.04105e-06
1.04105e-06
1.04266e-06
1.04284e-06
1.04297e-06
1.04349e-06
1.04279e-06
1.04248e-06
1.04105e-06
1.04105e-06
1.04105e-06
1.04269e-06
1.04284e-06
1.04295e-06
1.04365e-06
1.0435e-06
1.04288e-06
1.04292e-06
1.04291e-06
1.04291e-06
1.04292e-06
1.04297e-06
1.04365e-06
1.04353e-06
1.04367e-06
1.04368e-06
1.04368e-06
1.04366e-06
1.03407e-06
1.03326e-06
1.03319e-06
1.03324e-06
1.03406e-06
1.0341e-06
1.03409e-06
1.03337e-06
1.03292e-06
1.03164e-06
1.03164e-06
1.03164e-06
1.03307e-06
1.03338e-06
1.03408e-06
1.03337e-06
1.03288e-06
1.03164e-06
1.03164e-06
1.03164e-06
1.03164e-06
1.03164e-06
1.03304e-06
1.03338e-06
1.03409e-06
1.03407e-06
1.03292e-06
1.03164e-06
1.03164e-06
1.03164e-06
1.03164e-06
1.03164e-06
1.03164e-06
1.03164e-06
1.03307e-06
1.03347e-06
1.03412e-06
1.03326e-06
1.03164e-06
1.03164e-06
1.03164e-06
1.03164e-06
1.03164e-06
1.03164e-06
1.03164e-06
1.03164e-06
1.03164e-06
1.03351e-06
1.03426e-06
1.03319e-06
1.03164e-06
1.03164e-06
1.03164e-06
1.03164e-06
1.03164e-06
1.03164e-06
1.03164e-06
1.03164e-06
1.03164e-06
1.0335e-06
1.03427e-06
1.03324e-06
1.03164e-06
1.03164e-06
1.03164e-06
1.03164e-06
1.03164e-06
1.03164e-06
1.03164e-06
1.03164e-06
1.03164e-06
1.0335e-06
1.03427e-06
1.03406e-06
1.03307e-06
1.03164e-06
1.03164e-06
1.03164e-06
1.03164e-06
1.03164e-06
1.03164e-06
1.03164e-06
1.03328e-06
1.03351e-06
1.03425e-06
1.0341e-06
1.03338e-06
1.03304e-06
1.03164e-06
1.03164e-06
1.03164e-06
1.03164e-06
1.03164e-06
1.03325e-06
1.03343e-06
1.03356e-06
1.03408e-06
1.03338e-06
1.03307e-06
1.03164e-06
1.03164e-06
1.03164e-06
1.03328e-06
1.03343e-06
1.03354e-06
1.03424e-06
1.03409e-06
1.03347e-06
1.03351e-06
1.0335e-06
1.0335e-06
1.03351e-06
1.03356e-06
1.03424e-06
1.03412e-06
1.03426e-06
1.03427e-06
1.03427e-06
1.03425e-06
1.02466e-06
1.02385e-06
1.02378e-06
1.02383e-06
1.02465e-06
1.02469e-06
1.02468e-06
1.02396e-06
1.02351e-06
1.02223e-06
1.02223e-06
1.02223e-06
1.02366e-06
1.02397e-06
1.02467e-06
1.02396e-06
1.02347e-06
1.02223e-06
1.02223e-06
1.02223e-06
1.02223e-06
1.02223e-06
1.02363e-06
1.02397e-06
1.02468e-06
1.02466e-06
1.02351e-06
1.02223e-06
1.02223e-06
1.02223e-06
1.02223e-06
1.02223e-06
1.02223e-06
1.02223e-06
1.02366e-06
1.02406e-06
1.02471e-06
1.02385e-06
1.02223e-06
1.02223e-06
1.02223e-06
1.02223e-06
1.02223e-06
1.02223e-06
1.02223e-06
1.02223e-06
1.02223e-06
1.0241e-06
1.02485e-06
1.02378e-06
1.02223e-06
1.02223e-06
1.02223e-06
1.02223e-06
1.02223e-06
1.02223e-06
1.02223e-06
1.02223e-06
1.02223e-06
1.02409e-06
1.02486e-06
1.02383e-06
1.02223e-06
1.02223e-06
1.02223e-06
1.02223e-06
1.02223e-06
1.02223e-06
1.02223e-06
1.02223e-06
1.02223e-06
1.02409e-06
1.02486e-06
1.02465e-06
1.02366e-06
1.02223e-06
1.02223e-06
1.02223e-06
1.02223e-06
1.02223e-06
1.02223e-06
1.02223e-06
1.02387e-06
1.0241e-06
1.02484e-06
1.02469e-06
1.02397e-06
1.02363e-06
1.02223e-06
1.02223e-06
1.02223e-06
1.02223e-06
1.02223e-06
1.02383e-06
1.02402e-06
1.02415e-06
1.02467e-06
1.02397e-06
1.02366e-06
1.02223e-06
1.02223e-06
1.02223e-06
1.02387e-06
1.02402e-06
1.02413e-06
1.02483e-06
1.02468e-06
1.02406e-06
1.0241e-06
1.02409e-06
1.02409e-06
1.0241e-06
1.02415e-06
1.02483e-06
1.02471e-06
1.02485e-06
1.02486e-06
1.02486e-06
1.02484e-06
1.01525e-06
1.01444e-06
1.01437e-06
1.01442e-06
1.01524e-06
1.01528e-06
1.01527e-06
1.01455e-06
1.0141e-06
1.01282e-06
1.01282e-06
1.01282e-06
1.01425e-06
1.01456e-06
1.01526e-06
1.01455e-06
1.01406e-06
1.01282e-06
1.01282e-06
1.01282e-06
1.01282e-06
1.01282e-06
1.01422e-06
1.01456e-06
1.01527e-06
1.01525e-06
1.0141e-06
1.01282e-06
1.01282e-06
1.01282e-06
1.01282e-06
1.01282e-06
1.01282e-06
1.01282e-06
1.01425e-06
1.01465e-06
1.0153e-06
1.01444e-06
1.01282e-06
1.01282e-06
1.01282e-06
1.01282e-06
1.01282e-06
1.01282e-06
1.01282e-06
1.01282e-06
1.01282e-06
1.01469e-06
1.01544e-06
1.01437e-06
1.01282e-06
1.01282e-06
1.01282e-06
1.01282e-06
1.01282e-06
1.01282e-06
1.01282e-06
1.01282e-06
1.01282e-06
1.01468e-06
1.01545e-06
1.01442e-06
1.01282e-06
1.01282e-06
1.01282e-06
1.01282e-06
1.01282e-06
1.01282e-06
1.01282e-06
1.01282e-06
1.01282e-06
1.01468e-06
1.01545e-06
1.01524e-06
1.01425e-06
1.01282e-06
1.01282e-06
1.01282e-06
1.01282e-06
1.01282e-06
1.01282e-06
1.01282e-06
1.01446e-06
1.01469e-06
1.01543e-06
1.01528e-06
1.01456e-06
1.01422e-06
1.01282e-06
1.01282e-06
1.01282e-06
1.01282e-06
1.01282e-06
1.01443e-06
1.01461e-06
1.01474e-06
1.01526e-06
1.01456e-06
1.01425e-06
1.01282e-06
1.01282e-06
1.01282e-06
1.01446e-06
1.01461e-06
1.01472e-06
1.01542e-06
1.01527e-06
1.01465e-06
1.01469e-06
1.01468e-06
1.01468e-06
1.01469e-06
1.01474e-06
1.01541e-06
1.0153e-06
1.01544e-06
1.01545e-06
1.01545e-06
1.01543e-06
1.00584e-06
1.00503e-06
1.00496e-06
1.00501e-06
1.00583e-06
1.00587e-06
1.00586e-06
1.00514e-06
1.00469e-06
1.00341e-06
1.00341e-06
1.00341e-06
1.00484e-06
1.00515e-06
1.00585e-06
1.00514e-06
1.00465e-06
1.00341e-06
1.00341e-06
1.00341e-06
1.00341e-06
1.00341e-06
1.00481e-06
1.00515e-06
1.00586e-06
1.00584e-06
1.00469e-06
1.00341e-06
1.00341e-06
1.00341e-06
1.00341e-06
1.00341e-06
1.00341e-06
1.00341e-06
1.00484e-06
1.00524e-06
1.00589e-06
1.00503e-06
1.00341e-06
1.00341e-06
1.00341e-06
1.00341e-06
1.00341e-06
1.00341e-06
1.00341e-06
1.00341e-06
1.00341e-06
1.00528e-06
1.00603e-06
1.00496e-06
1.00341e-06
1.00341e-06
1.00341e-06
1.00341e-06
1.00341e-06
1.00341e-06
1.00341e-06
1.00341e-06
1.00341e-06
1.00527e-06
1.00604e-06
1.00501e-06
1.00341e-06
1.00341e-06
1.00341e-06
1.00341e-06
1.00341e-06
1.00341e-06
1.00341e-06
1.00341e-06
1.00341e-06
1.00527e-06
1.00604e-06
1.00583e-06
1.00484e-06
1.00341e-06
1.00341e-06
1.00341e-06
1.00341e-06
1.00341e-06
1.00341e-06
1.00341e-06
1.00505e-06
1.00528e-06
1.00602e-06
1.00587e-06
1.00515e-06
1.00481e-06
1.00341e-06
1.00341e-06
1.00341e-06
1.00341e-06
1.00341e-06
1.00501e-06
1.0052e-06
1.00533e-06
1.00585e-06
1.00515e-06
1.00484e-06
1.00341e-06
1.00341e-06
1.00341e-06
1.00505e-06
1.0052e-06
1.00531e-06
1.006e-06
1.00586e-06
1.00524e-06
1.00528e-06
1.00527e-06
1.00527e-06
1.00528e-06
1.00533e-06
1.006e-06
1.00589e-06
1.00603e-06
1.00604e-06
1.00604e-06
1.00602e-06
9.96428e-07
9.95618e-07
9.95552e-07
9.956e-07
9.96422e-07
9.96459e-07
9.96451e-07
9.95733e-07
9.95277e-07
9.93997e-07
9.93997e-07
9.93997e-07
9.95426e-07
9.95744e-07
9.96443e-07
9.95733e-07
9.95242e-07
9.93997e-07
9.93998e-07
9.93997e-07
9.93998e-07
9.93997e-07
9.95403e-07
9.95742e-07
9.96447e-07
9.96427e-07
9.95277e-07
9.93997e-07
9.93998e-07
9.93997e-07
9.93998e-07
9.93997e-07
9.93998e-07
9.93997e-07
9.95428e-07
9.95826e-07
9.96478e-07
9.95618e-07
9.93997e-07
9.93998e-07
9.93997e-07
9.93998e-07
9.93998e-07
9.93998e-07
9.93997e-07
9.93998e-07
9.93997e-07
9.95868e-07
9.96615e-07
9.95552e-07
9.93997e-07
9.93997e-07
9.93998e-07
9.93998e-07
9.93998e-07
9.93998e-07
9.93998e-07
9.93997e-07
9.93997e-07
9.95855e-07
9.96626e-07
9.956e-07
9.93997e-07
9.93998e-07
9.93997e-07
9.93998e-07
9.93998e-07
9.93998e-07
9.93997e-07
9.93998e-07
9.93997e-07
9.9586e-07
9.96626e-07
9.96422e-07
9.95426e-07
9.93997e-07
9.93998e-07
9.93997e-07
9.93998e-07
9.93997e-07
9.93998e-07
9.93997e-07
9.95638e-07
9.95869e-07
9.96611e-07
9.96459e-07
9.95744e-07
9.95403e-07
9.93997e-07
9.93998e-07
9.93997e-07
9.93998e-07
9.93997e-07
9.95604e-07
9.95787e-07
9.95922e-07
9.96443e-07
9.95742e-07
9.95428e-07
9.93997e-07
9.93997e-07
9.93997e-07
9.95638e-07
9.95787e-07
9.95897e-07
9.96595e-07
9.96447e-07
9.95826e-07
9.95868e-07
9.95855e-07
9.9586e-07
9.95869e-07
9.95922e-07
9.96594e-07
9.96478e-07
9.96615e-07
9.96626e-07
9.96626e-07
9.96611e-07
9.87017e-07
9.86207e-07
9.86142e-07
9.8619e-07
9.87012e-07
9.87048e-07
9.87041e-07
9.86322e-07
9.85867e-07
9.84586e-07
9.84587e-07
9.84586e-07
9.86016e-07
9.86334e-07
9.87033e-07
9.86323e-07
9.85832e-07
9.84587e-07
9.84588e-07
9.84587e-07
9.84588e-07
9.84587e-07
9.85993e-07
9.86332e-07
9.87037e-07
9.87017e-07
9.85867e-07
9.84587e-07
9.84587e-07
9.84587e-07
9.84587e-07
9.84587e-07
9.84587e-07
9.84587e-07
9.86018e-07
9.86416e-07
9.87068e-07
9.86207e-07
9.84586e-07
9.84588e-07
9.84587e-07
9.84588e-07
9.84587e-07
9.84588e-07
9.84587e-07
9.84588e-07
9.84586e-07
9.86458e-07
9.87205e-07
9.86142e-07
9.84587e-07
9.84587e-07
9.84587e-07
9.84587e-07
9.84587e-07
9.84587e-07
9.84587e-07
9.84587e-07
9.84587e-07
9.86445e-07
9.87216e-07
9.8619e-07
9.84586e-07
9.84588e-07
9.84587e-07
9.84588e-07
9.84587e-07
9.84588e-07
9.84587e-07
9.84588e-07
9.84586e-07
9.8645e-07
9.87216e-07
9.87012e-07
9.86016e-07
9.84587e-07
9.84587e-07
9.84587e-07
9.84587e-07
9.84587e-07
9.84587e-07
9.84587e-07
9.86228e-07
9.86459e-07
9.87201e-07
9.87048e-07
9.86334e-07
9.85993e-07
9.84587e-07
9.84588e-07
9.84587e-07
9.84588e-07
9.84587e-07
9.86194e-07
9.86377e-07
9.86511e-07
9.87033e-07
9.86332e-07
9.86018e-07
9.84586e-07
9.84587e-07
9.84586e-07
9.86228e-07
9.86377e-07
9.86487e-07
9.87184e-07
9.87037e-07
9.86416e-07
9.86458e-07
9.86445e-07
9.8645e-07
9.86459e-07
9.86511e-07
9.87184e-07
9.87068e-07
9.87205e-07
9.87216e-07
9.87216e-07
9.87201e-07
9.77607e-07
9.76797e-07
9.76731e-07
9.7678e-07
9.77602e-07
9.77638e-07
9.77631e-07
9.76912e-07
9.76457e-07
9.75176e-07
9.75177e-07
9.75176e-07
9.76606e-07
9.76924e-07
9.77623e-07
9.76912e-07
9.76422e-07
9.75177e-07
9.75178e-07
9.75177e-07
9.75178e-07
9.75177e-07
9.76583e-07
9.76921e-07
9.77626e-07
9.77607e-07
9.76457e-07
9.75177e-07
9.75177e-07
9.75177e-07
9.75177e-07
9.75177e-07
9.75177e-07
9.75177e-07
9.76608e-07
9.77006e-07
9.77658e-07
9.76797e-07
9.75176e-07
9.75178e-07
9.75177e-07
9.75178e-07
9.75177e-07
9.75178e-07
9.75177e-07
9.75178e-07
9.75176e-07
9.77048e-07
9.77795e-07
9.76731e-07
9.75177e-07
9.75177e-07
9.75177e-07
9.75177e-07
9.75177e-07
9.75177e-07
9.75177e-07
9.75177e-07
9.75177e-07
9.77035e-07
9.77805e-07
9.7678e-07
9.75176e-07
9.75178e-07
9.75177e-07
9.75178e-07
9.75177e-07
9.75178e-07
9.75177e-07
9.75178e-07
9.75176e-07
9.7704e-07
9.77806e-07
9.77602e-07
9.76606e-07
9.75177e-07
9.75177e-07
9.75177e-07
9.75177e-07
9.75177e-07
9.75177e-07
9.75177e-07
9.76818e-07
9.77049e-07
9.77791e-07
9.77638e-07
9.76924e-07
9.76583e-07
9.75177e-07
9.75178e-07
9.75177e-07
9.75178e-07
9.75177e-07
9.76784e-07
9.76967e-07
9.77101e-07
9.77623e-07
9.76921e-07
9.76608e-07
9.75176e-07
9.75177e-07
9.75176e-07
9.76818e-07
9.76967e-07
9.77077e-07
9.77774e-07
9.77626e-07
9.77006e-07
9.77048e-07
9.77035e-07
9.7704e-07
9.77049e-07
9.77101e-07
9.77774e-07
9.77658e-07
9.77795e-07
9.77805e-07
9.77806e-07
9.77791e-07
9.68197e-07
9.67387e-07
9.67321e-07
9.6737e-07
9.68192e-07
9.68228e-07
9.68221e-07
9.67502e-07
9.67047e-07
9.65766e-07
9.65767e-07
9.65766e-07
9.67196e-07
9.67514e-07
9.68213e-07
9.67502e-07
9.67011e-07
9.65766e-07
9.65768e-07
9.65767e-07
9.65768e-07
9.65766e-07
9.67173e-07
9.67511e-07
9.68216e-07
9.68197e-07
9.67047e-07
9.65766e-07
9.65767e-07
9.65766e-07
9.65767e-07
9.65766e-07
9.65767e-07
9.65766e-07
9.67198e-07
9.67596e-07
9.68248e-07
9.67387e-07
9.65766e-07
9.65768e-07
9.65766e-07
9.65768e-07
9.65767e-07
9.65768e-07
9.65766e-07
9.65768e-07
9.65766e-07
9.67638e-07
9.68385e-07
9.67321e-07
9.65767e-07
9.65767e-07
9.65767e-07
9.65767e-07
9.65767e-07
9.65767e-07
9.65767e-07
9.65767e-07
9.65767e-07
9.67625e-07
9.68395e-07
9.6737e-07
9.65766e-07
9.65768e-07
9.65766e-07
9.65768e-07
9.65767e-07
9.65768e-07
9.65766e-07
9.65768e-07
9.65766e-07
9.6763e-07
9.68396e-07
9.68192e-07
9.67196e-07
9.65766e-07
9.65767e-07
9.65766e-07
9.65767e-07
9.65766e-07
9.65767e-07
9.65766e-07
9.67407e-07
9.67638e-07
9.68381e-07
9.68228e-07
9.67514e-07
9.67173e-07
9.65766e-07
9.65768e-07
9.65767e-07
9.65768e-07
9.65766e-07
9.67374e-07
9.67556e-07
9.67691e-07
9.68213e-07
9.67511e-07
9.67198e-07
9.65766e-07
9.65767e-07
9.65766e-07
9.67407e-07
9.67556e-07
9.67667e-07
9.68364e-07
9.68216e-07
9.67596e-07
9.67638e-07
9.67625e-07
9.6763e-07
9.67638e-07
9.67691e-07
9.68364e-07
9.68248e-07
9.68385e-07
9.68395e-07
9.68396e-07
9.68381e-07
9.58787e-07
9.57977e-07
9.57911e-07
9.5796e-07
9.58781e-07
9.58818e-07
9.5881e-07
9.58092e-07
9.57636e-07
9.56356e-07
9.56356e-07
9.56356e-07
9.57786e-07
9.58103e-07
9.58802e-07
9.58092e-07
9.57601e-07
9.56356e-07
9.56357e-07
9.56356e-07
9.56357e-07
9.56356e-07
9.57763e-07
9.58101e-07
9.58806e-07
9.58787e-07
9.57636e-07
9.56356e-07
9.56357e-07
9.56356e-07
9.56357e-07
9.56356e-07
9.56357e-07
9.56356e-07
9.57787e-07
9.58186e-07
9.58837e-07
9.57977e-07
9.56356e-07
9.56357e-07
9.56356e-07
9.56357e-07
9.56356e-07
9.56357e-07
9.56356e-07
9.56357e-07
9.56356e-07
9.58228e-07
9.58974e-07
9.57911e-07
9.56356e-07
9.56356e-07
9.56357e-07
9.56356e-07
9.56357e-07
9.56356e-07
9.56357e-07
9.56356e-07
9.56356e-07
9.58214e-07
9.58985e-07
9.5796e-07
9.56356e-07
9.56357e-07
9.56356e-07
9.56357e-07
9.56356e-07
9.56357e-07
9.56356e-07
9.56357e-07
9.56356e-07
9.5822e-07
9.58986e-07
9.58781e-07
9.57786e-07
9.56356e-07
9.56357e-07
9.56356e-07
9.56357e-07
9.56356e-07
9.56357e-07
9.56356e-07
9.57997e-07
9.58228e-07
9.5897e-07
9.58818e-07
9.58103e-07
9.57763e-07
9.56356e-07
9.56357e-07
9.56356e-07
9.56357e-07
9.56356e-07
9.57964e-07
9.58146e-07
9.58281e-07
9.58802e-07
9.58101e-07
9.57787e-07
9.56356e-07
9.56356e-07
9.56356e-07
9.57997e-07
9.58146e-07
9.58256e-07
9.58954e-07
9.58806e-07
9.58186e-07
9.58228e-07
9.58214e-07
9.5822e-07
9.58228e-07
9.58281e-07
9.58954e-07
9.58837e-07
9.58974e-07
9.58985e-07
9.58986e-07
9.5897e-07
9.49376e-07
9.48567e-07
9.48501e-07
9.48549e-07
9.49371e-07
9.49408e-07
9.494e-07
9.48682e-07
9.48226e-07
9.46945e-07
9.46946e-07
9.46946e-07
9.48375e-07
9.48693e-07
9.49392e-07
9.48682e-07
9.48191e-07
9.46946e-07
9.46947e-07
9.46946e-07
9.46947e-07
9.46946e-07
9.48352e-07
9.48691e-07
9.49396e-07
9.49376e-07
9.48226e-07
9.46946e-07
9.46946e-07
9.46946e-07
9.46946e-07
9.46946e-07
9.46946e-07
9.46946e-07
9.48377e-07
9.48775e-07
9.49427e-07
9.48566e-07
9.46945e-07
9.46947e-07
9.46946e-07
9.46947e-07
9.46946e-07
9.46947e-07
9.46946e-07
9.46947e-07
9.46946e-07
9.48817e-07
9.49564e-07
9.48501e-07
9.46946e-07
9.46946e-07
9.46946e-07
9.46946e-07
9.46946e-07
9.46946e-07
9.46946e-07
9.46946e-07
9.46946e-07
9.48804e-07
9.49575e-07
9.48549e-07
9.46945e-07
9.46947e-07
9.46946e-07
9.46947e-07
9.46946e-07
9.46947e-07
9.46946e-07
9.46947e-07
9.46946e-07
9.48809e-07
9.49575e-07
9.49371e-07
9.48375e-07
9.46946e-07
9.46946e-07
9.46946e-07
9.46946e-07
9.46946e-07
9.46946e-07
9.46946e-07
9.48587e-07
9.48818e-07
9.4956e-07
9.49408e-07
9.48693e-07
9.48352e-07
9.46946e-07
9.46947e-07
9.46946e-07
9.46947e-07
9.46946e-07
9.48553e-07
9.48736e-07
9.48871e-07
9.49392e-07
9.48691e-07
9.48377e-07
9.46945e-07
9.46946e-07
9.46945e-07
9.48587e-07
9.48736e-07
9.48846e-07
9.49543e-07
9.49396e-07
9.48775e-07
9.48817e-07
9.48804e-07
9.48809e-07
9.48818e-07
9.48871e-07
9.49543e-07
9.49427e-07
9.49564e-07
9.49575e-07
9.49575e-07
9.4956e-07
9.39966e-07
9.39156e-07
9.3909e-07
9.39139e-07
9.39961e-07
9.39997e-07
9.3999e-07
9.39271e-07
9.38816e-07
9.37535e-07
9.37536e-07
9.37535e-07
9.38965e-07
9.39283e-07
9.39982e-07
9.39271e-07
9.38781e-07
9.37536e-07
9.37537e-07
9.37536e-07
9.37537e-07
9.37536e-07
9.38942e-07
9.3928e-07
9.39985e-07
9.39966e-07
9.38816e-07
9.37536e-07
9.37536e-07
9.37536e-07
9.37536e-07
9.37536e-07
9.37536e-07
9.37536e-07
9.38967e-07
9.39365e-07
9.40017e-07
9.39156e-07
9.37535e-07
9.37537e-07
9.37536e-07
9.37537e-07
9.37536e-07
9.37537e-07
9.37536e-07
9.37537e-07
9.37535e-07
9.39407e-07
9.40154e-07
9.3909e-07
9.37536e-07
9.37536e-07
9.37536e-07
9.37536e-07
9.37536e-07
9.37536e-07
9.37536e-07
9.37536e-07
9.37536e-07
9.39394e-07
9.40164e-07
9.39139e-07
9.37535e-07
9.37537e-07
9.37536e-07
9.37537e-07
9.37536e-07
9.37537e-07
9.37536e-07
9.37537e-07
9.37535e-07
9.39399e-07
9.40165e-07
9.39961e-07
9.38965e-07
9.37536e-07
9.37536e-07
9.37536e-07
9.37536e-07
9.37536e-07
9.37536e-07
9.37536e-07
9.39177e-07
9.39408e-07
9.4015e-07
9.39997e-07
9.39283e-07
9.38942e-07
9.37536e-07
9.37537e-07
9.37536e-07
9.37537e-07
9.37536e-07
9.39143e-07
9.39326e-07
9.3946e-07
9.39982e-07
9.3928e-07
9.38967e-07
9.37535e-07
9.37536e-07
9.37535e-07
9.39177e-07
9.39326e-07
9.39436e-07
9.40133e-07
9.39985e-07
9.39365e-07
9.39407e-07
9.39394e-07
9.39399e-07
9.39408e-07
9.3946e-07
9.40133e-07
9.40017e-07
9.40154e-07
9.40164e-07
9.40165e-07
9.4015e-07
9.30556e-07
9.29746e-07
9.2968e-07
9.29729e-07
9.30551e-07
9.30587e-07
9.3058e-07
9.29861e-07
9.29406e-07
9.28125e-07
9.28126e-07
9.28125e-07
9.29555e-07
9.29873e-07
9.30572e-07
9.29861e-07
9.2937e-07
9.28125e-07
9.28127e-07
9.28126e-07
9.28127e-07
9.28125e-07
9.29532e-07
9.2987e-07
9.30575e-07
9.30556e-07
9.29406e-07
9.28125e-07
9.28126e-07
9.28125e-07
9.28126e-07
9.28125e-07
9.28126e-07
9.28125e-07
9.29557e-07
9.29955e-07
9.30606e-07
9.29746e-07
9.28125e-07
9.28127e-07
9.28125e-07
9.28126e-07
9.28126e-07
9.28126e-07
9.28125e-07
9.28127e-07
9.28125e-07
9.29997e-07
9.30744e-07
9.2968e-07
9.28126e-07
9.28126e-07
9.28126e-07
9.28126e-07
9.28126e-07
9.28126e-07
9.28126e-07
9.28126e-07
9.28126e-07
9.29984e-07
9.30754e-07
9.29729e-07
9.28125e-07