/*--------------------------------*- C++ -*----------------------------------*\
| =========                 |                                                 |
| \\      /  F ield         | OpenFOAM: The Open Source CFD Toolbox           |
|  \\    /   O peration     | Version:  v2012                                 |
|   \\  /    A nd           | Website:  www.openfoam.com                      |
|    \\/     M anipulation  |                                                 |
\*---------------------------------------------------------------------------*/
FoamFile
{
    version     2.0;
    format      ascii;
    class       volScalarField;
    location    "57";
    object      p;
}
// * * * * * * * * * * * * * * * * * * * * * * * * * * * * * * * * * * * * * //

dimensions      [0 2 -2 0 0 0 0];


internalField   nonuniform List<scalar> 
292667
(
1.14177e-06
1.13255e-06
1.13183e-06
1.13189e-06
1.13288e-06
1.14265e-06
1.13276e-06
1.13026e-06
1.12879e-06
1.12819e-06
1.12827e-06
1.12905e-06
1.13074e-06
1.13347e-06
1.13276e-06
1.12953e-06
1.1275e-06
1.12639e-06
1.12592e-06
1.12598e-06
1.12659e-06
1.12789e-06
1.13017e-06
1.13367e-06
1.14177e-06
1.13026e-06
1.1275e-06
1.12586e-06
1.12494e-06
1.12455e-06
1.1246e-06
1.12511e-06
1.12618e-06
1.12804e-06
1.13113e-06
1.14133e-06
1.13255e-06
1.12879e-06
1.12639e-06
1.12494e-06
1.12412e-06
1.12377e-06
1.12382e-06
1.12428e-06
1.12523e-06
1.12687e-06
1.12959e-06
1.13606e-06
1.13183e-06
1.12819e-06
1.12592e-06
1.12455e-06
1.12377e-06
1.12343e-06
1.12348e-06
1.12392e-06
1.12482e-06
1.12638e-06
1.12896e-06
1.13447e-06
1.13189e-06
1.12827e-06
1.12598e-06
1.1246e-06
1.12382e-06
1.12348e-06
1.12352e-06
1.12397e-06
1.12488e-06
1.12645e-06
1.12905e-06
1.13478e-06
1.13288e-06
1.12905e-06
1.12659e-06
1.12511e-06
1.12428e-06
1.12392e-06
1.12397e-06
1.12444e-06
1.12541e-06
1.12709e-06
1.12989e-06
1.13636e-06
1.14265e-06
1.13074e-06
1.12789e-06
1.12618e-06
1.12523e-06
1.12482e-06
1.12488e-06
1.12541e-06
1.12652e-06
1.12847e-06
1.13167e-06
1.14121e-06
1.13347e-06
1.13017e-06
1.12804e-06
1.12687e-06
1.12638e-06
1.12645e-06
1.12709e-06
1.12847e-06
1.13088e-06
1.13702e-06
1.13367e-06
1.13113e-06
1.12959e-06
1.12896e-06
1.12905e-06
1.12989e-06
1.13167e-06
1.13702e-06
1.14133e-06
1.13606e-06
1.13447e-06
1.13478e-06
1.13636e-06
1.14121e-06
1.11628e-06
1.11552e-06
1.11549e-06
1.11553e-06
1.11628e-06
1.11616e-06
1.11633e-06
1.11573e-06
1.11537e-06
1.11407e-06
1.11405e-06
1.11407e-06
1.11553e-06
1.11578e-06
1.11636e-06
1.11573e-06
1.11536e-06
1.11412e-06
1.11406e-06
1.11411e-06
1.11406e-06
1.11412e-06
1.11551e-06
1.11576e-06
1.11634e-06
1.11628e-06
1.11537e-06
1.11412e-06
1.11405e-06
1.11409e-06
1.11407e-06
1.11409e-06
1.11406e-06
1.11412e-06
1.1155e-06
1.11579e-06
1.11637e-06
1.11552e-06
1.11407e-06
1.11406e-06
1.11409e-06
1.11405e-06
1.11405e-06
1.11405e-06
1.11409e-06
1.11406e-06
1.11407e-06
1.11593e-06
1.11653e-06
1.11549e-06
1.11405e-06
1.11411e-06
1.11407e-06
1.11405e-06
1.11404e-06
1.11405e-06
1.11407e-06
1.11411e-06
1.11405e-06
1.11595e-06
1.11645e-06
1.11553e-06
1.11407e-06
1.11406e-06
1.11409e-06
1.11405e-06
1.11405e-06
1.11405e-06
1.11409e-06
1.11406e-06
1.11407e-06
1.11595e-06
1.11648e-06
1.11628e-06
1.11553e-06
1.11412e-06
1.11406e-06
1.11409e-06
1.11407e-06
1.11409e-06
1.11405e-06
1.11412e-06
1.11569e-06
1.11584e-06
1.11649e-06
1.11616e-06
1.11578e-06
1.11551e-06
1.11412e-06
1.11406e-06
1.11411e-06
1.11406e-06
1.11412e-06
1.11566e-06
1.11581e-06
1.11582e-06
1.11636e-06
1.11576e-06
1.1155e-06
1.11407e-06
1.11405e-06
1.11407e-06
1.11569e-06
1.11581e-06
1.11587e-06
1.11647e-06
1.11634e-06
1.11579e-06
1.11593e-06
1.11595e-06
1.11595e-06
1.11584e-06
1.11582e-06
1.11647e-06
1.11637e-06
1.11653e-06
1.11645e-06
1.11648e-06
1.11649e-06
1.1068e-06
1.106e-06
1.10594e-06
1.10598e-06
1.10679e-06
1.10683e-06
1.10682e-06
1.10612e-06
1.1057e-06
1.10444e-06
1.10443e-06
1.10444e-06
1.10585e-06
1.10615e-06
1.10681e-06
1.10612e-06
1.10568e-06
1.10448e-06
1.10448e-06
1.10452e-06
1.10448e-06
1.10448e-06
1.10585e-06
1.10615e-06
1.10681e-06
1.1068e-06
1.1057e-06
1.10448e-06
1.1045e-06
1.10455e-06
1.10455e-06
1.10455e-06
1.1045e-06
1.10448e-06
1.10586e-06
1.10621e-06
1.10685e-06
1.106e-06
1.10444e-06
1.10448e-06
1.10455e-06
1.10456e-06
1.10458e-06
1.10456e-06
1.10455e-06
1.10448e-06
1.10444e-06
1.10626e-06
1.10698e-06
1.10594e-06
1.10443e-06
1.10452e-06
1.10455e-06
1.10458e-06
1.10458e-06
1.10458e-06
1.10455e-06
1.10452e-06
1.10443e-06
1.10626e-06
1.107e-06
1.10598e-06
1.10444e-06
1.10448e-06
1.10455e-06
1.10456e-06
1.10458e-06
1.10456e-06
1.10455e-06
1.10448e-06
1.10444e-06
1.10626e-06
1.107e-06
1.10679e-06
1.10585e-06
1.10448e-06
1.1045e-06
1.10455e-06
1.10455e-06
1.10455e-06
1.1045e-06
1.10448e-06
1.10606e-06
1.10625e-06
1.10698e-06
1.10683e-06
1.10615e-06
1.10585e-06
1.10448e-06
1.10448e-06
1.10452e-06
1.10448e-06
1.10448e-06
1.10604e-06
1.10619e-06
1.10628e-06
1.10681e-06
1.10615e-06
1.10586e-06
1.10444e-06
1.10443e-06
1.10444e-06
1.10606e-06
1.10619e-06
1.10627e-06
1.10696e-06
1.10681e-06
1.10621e-06
1.10626e-06
1.10626e-06
1.10626e-06
1.10625e-06
1.10628e-06
1.10696e-06
1.10685e-06
1.10698e-06
1.107e-06
1.107e-06
1.10698e-06
1.09733e-06
1.09652e-06
1.09646e-06
1.09651e-06
1.09733e-06
1.09736e-06
1.09736e-06
1.09664e-06
1.0962e-06
1.09492e-06
1.09492e-06
1.09492e-06
1.09635e-06
1.09666e-06
1.09735e-06
1.09664e-06
1.09617e-06
1.09494e-06
1.09496e-06
1.09498e-06
1.09496e-06
1.09494e-06
1.09633e-06
1.09665e-06
1.09735e-06
1.09733e-06
1.0962e-06
1.09494e-06
1.09497e-06
1.095e-06
1.095e-06
1.095e-06
1.09497e-06
1.09494e-06
1.09635e-06
1.09673e-06
1.09738e-06
1.09652e-06
1.09492e-06
1.09496e-06
1.095e-06
1.09502e-06
1.09503e-06
1.09502e-06
1.095e-06
1.09496e-06
1.09492e-06
1.09678e-06
1.09752e-06
1.09646e-06
1.09492e-06
1.09498e-06
1.095e-06
1.09503e-06
1.09504e-06
1.09503e-06
1.095e-06
1.09498e-06
1.09492e-06
1.09677e-06
1.09753e-06
1.09651e-06
1.09492e-06
1.09496e-06
1.095e-06
1.09502e-06
1.09503e-06
1.09502e-06
1.095e-06
1.09496e-06
1.09492e-06
1.09677e-06
1.09753e-06
1.09733e-06
1.09635e-06
1.09494e-06
1.09497e-06
1.095e-06
1.095e-06
1.095e-06
1.09497e-06
1.09494e-06
1.09656e-06
1.09677e-06
1.09752e-06
1.09736e-06
1.09666e-06
1.09633e-06
1.09494e-06
1.09496e-06
1.09498e-06
1.09496e-06
1.09494e-06
1.09653e-06
1.0967e-06
1.09682e-06
1.09735e-06
1.09665e-06
1.09635e-06
1.09492e-06
1.09492e-06
1.09492e-06
1.09656e-06
1.0967e-06
1.0968e-06
1.0975e-06
1.09735e-06
1.09673e-06
1.09678e-06
1.09677e-06
1.09677e-06
1.09677e-06
1.09682e-06
1.0975e-06
1.09738e-06
1.09752e-06
1.09753e-06
1.09753e-06
1.09752e-06
1.08787e-06
1.08705e-06
1.08699e-06
1.08704e-06
1.08786e-06
1.0879e-06
1.08789e-06
1.08717e-06
1.08672e-06
1.08543e-06
1.08543e-06
1.08543e-06
1.08687e-06
1.08718e-06
1.08788e-06
1.08717e-06
1.08669e-06
1.08544e-06
1.08546e-06
1.08546e-06
1.08546e-06
1.08544e-06
1.08685e-06
1.08718e-06
1.08789e-06
1.08787e-06
1.08672e-06
1.08544e-06
1.08546e-06
1.08548e-06
1.08548e-06
1.08548e-06
1.08546e-06
1.08544e-06
1.08687e-06
1.08726e-06
1.08792e-06
1.08705e-06
1.08543e-06
1.08546e-06
1.08548e-06
1.08549e-06
1.0855e-06
1.08549e-06
1.08548e-06
1.08546e-06
1.08543e-06
1.0873e-06
1.08806e-06
1.08699e-06
1.08543e-06
1.08546e-06
1.08548e-06
1.0855e-06
1.08551e-06
1.0855e-06
1.08548e-06
1.08546e-06
1.08543e-06
1.08729e-06
1.08807e-06
1.08704e-06
1.08543e-06
1.08546e-06
1.08548e-06
1.08549e-06
1.0855e-06
1.08549e-06
1.08548e-06
1.08546e-06
1.08543e-06
1.0873e-06
1.08807e-06
1.08786e-06
1.08687e-06
1.08544e-06
1.08546e-06
1.08548e-06
1.08548e-06
1.08548e-06
1.08546e-06
1.08544e-06
1.08708e-06
1.0873e-06
1.08805e-06
1.0879e-06
1.08718e-06
1.08685e-06
1.08544e-06
1.08546e-06
1.08546e-06
1.08546e-06
1.08544e-06
1.08705e-06
1.08722e-06
1.08735e-06
1.08788e-06
1.08718e-06
1.08687e-06
1.08543e-06
1.08543e-06
1.08543e-06
1.08708e-06
1.08722e-06
1.08733e-06
1.08803e-06
1.08789e-06
1.08726e-06
1.0873e-06
1.08729e-06
1.0873e-06
1.0873e-06
1.08735e-06
1.08803e-06
1.08792e-06
1.08806e-06
1.08807e-06
1.08807e-06
1.08805e-06
1.0784e-06
1.07759e-06
1.07752e-06
1.07757e-06
1.0784e-06
1.07843e-06
1.07843e-06
1.0777e-06
1.07725e-06
1.07596e-06
1.07596e-06
1.07596e-06
1.07739e-06
1.07771e-06
1.07842e-06
1.0777e-06
1.07721e-06
1.07596e-06
1.07597e-06
1.07597e-06
1.07597e-06
1.07596e-06
1.07737e-06
1.07771e-06
1.07842e-06
1.0784e-06
1.07725e-06
1.07596e-06
1.07597e-06
1.07598e-06
1.07599e-06
1.07598e-06
1.07597e-06
1.07596e-06
1.0774e-06
1.07779e-06
1.07845e-06
1.07759e-06
1.07596e-06
1.07597e-06
1.07598e-06
1.07599e-06
1.076e-06
1.07599e-06
1.07598e-06
1.07597e-06
1.07596e-06
1.07784e-06
1.07859e-06
1.07752e-06
1.07596e-06
1.07597e-06
1.07599e-06
1.076e-06
1.076e-06
1.076e-06
1.07599e-06
1.07597e-06
1.07596e-06
1.07782e-06
1.0786e-06
1.07757e-06
1.07596e-06
1.07597e-06
1.07598e-06
1.07599e-06
1.076e-06
1.07599e-06
1.07598e-06
1.07597e-06
1.07596e-06
1.07783e-06
1.0786e-06
1.0784e-06
1.07739e-06
1.07596e-06
1.07597e-06
1.07598e-06
1.07599e-06
1.07598e-06
1.07597e-06
1.07596e-06
1.07761e-06
1.07784e-06
1.07859e-06
1.07843e-06
1.07771e-06
1.07737e-06
1.07596e-06
1.07597e-06
1.07597e-06
1.07597e-06
1.07596e-06
1.07757e-06
1.07775e-06
1.07789e-06
1.07842e-06
1.07771e-06
1.0774e-06
1.07596e-06
1.07596e-06
1.07596e-06
1.07761e-06
1.07775e-06
1.07786e-06
1.07857e-06
1.07842e-06
1.07779e-06
1.07784e-06
1.07782e-06
1.07783e-06
1.07784e-06
1.07789e-06
1.07857e-06
1.07845e-06
1.07859e-06
1.0786e-06
1.0786e-06
1.07859e-06
1.06893e-06
1.06812e-06
1.06805e-06
1.0681e-06
1.06893e-06
1.06897e-06
1.06896e-06
1.06823e-06
1.06778e-06
1.06648e-06
1.06649e-06
1.06648e-06
1.06792e-06
1.06824e-06
1.06895e-06
1.06823e-06
1.06774e-06
1.06649e-06
1.06649e-06
1.06649e-06
1.06649e-06
1.06649e-06
1.0679e-06
1.06824e-06
1.06895e-06
1.06893e-06
1.06778e-06
1.06649e-06
1.06649e-06
1.0665e-06
1.0665e-06
1.0665e-06
1.06649e-06
1.06649e-06
1.06793e-06
1.06833e-06
1.06899e-06
1.06812e-06
1.06648e-06
1.06649e-06
1.0665e-06
1.06651e-06
1.06651e-06
1.06651e-06
1.0665e-06
1.06649e-06
1.06648e-06
1.06837e-06
1.06912e-06
1.06805e-06
1.06649e-06
1.06649e-06
1.0665e-06
1.06651e-06
1.06651e-06
1.06651e-06
1.0665e-06
1.06649e-06
1.06649e-06
1.06835e-06
1.06913e-06
1.0681e-06
1.06648e-06
1.06649e-06
1.0665e-06
1.06651e-06
1.06651e-06
1.06651e-06
1.0665e-06
1.06649e-06
1.06648e-06
1.06836e-06
1.06913e-06
1.06893e-06
1.06792e-06
1.06649e-06
1.06649e-06
1.0665e-06
1.0665e-06
1.0665e-06
1.06649e-06
1.06649e-06
1.06814e-06
1.06837e-06
1.06912e-06
1.06897e-06
1.06824e-06
1.0679e-06
1.06649e-06
1.06649e-06
1.06649e-06
1.06649e-06
1.06649e-06
1.0681e-06
1.06829e-06
1.06842e-06
1.06895e-06
1.06824e-06
1.06793e-06
1.06648e-06
1.06649e-06
1.06648e-06
1.06814e-06
1.06829e-06
1.0684e-06
1.0691e-06
1.06895e-06
1.06833e-06
1.06837e-06
1.06835e-06
1.06836e-06
1.06837e-06
1.06842e-06
1.0691e-06
1.06899e-06
1.06912e-06
1.06913e-06
1.06913e-06
1.06912e-06
1.05947e-06
1.05865e-06
1.05858e-06
1.05863e-06
1.05946e-06
1.0595e-06
1.05949e-06
1.05876e-06
1.05831e-06
1.05701e-06
1.05701e-06
1.05701e-06
1.05846e-06
1.05877e-06
1.05948e-06
1.05876e-06
1.05827e-06
1.05702e-06
1.05702e-06
1.05702e-06
1.05702e-06
1.05702e-06
1.05843e-06
1.05877e-06
1.05948e-06
1.05947e-06
1.05831e-06
1.05702e-06
1.05702e-06
1.05702e-06
1.05702e-06
1.05702e-06
1.05702e-06
1.05702e-06
1.05846e-06
1.05886e-06
1.05952e-06
1.05865e-06
1.05701e-06
1.05702e-06
1.05702e-06
1.05703e-06
1.05703e-06
1.05703e-06
1.05702e-06
1.05702e-06
1.05701e-06
1.0589e-06
1.05965e-06
1.05858e-06
1.05701e-06
1.05702e-06
1.05702e-06
1.05703e-06
1.05703e-06
1.05703e-06
1.05702e-06
1.05702e-06
1.05701e-06
1.05888e-06
1.05966e-06
1.05863e-06
1.05701e-06
1.05702e-06
1.05702e-06
1.05703e-06
1.05703e-06
1.05703e-06
1.05702e-06
1.05702e-06
1.05701e-06
1.05889e-06
1.05966e-06
1.05946e-06
1.05846e-06
1.05702e-06
1.05702e-06
1.05702e-06
1.05702e-06
1.05702e-06
1.05702e-06
1.05702e-06
1.05867e-06
1.0589e-06
1.05965e-06
1.0595e-06
1.05878e-06
1.05843e-06
1.05702e-06
1.05702e-06
1.05702e-06
1.05702e-06
1.05702e-06
1.05863e-06
1.05882e-06
1.05895e-06
1.05948e-06
1.05877e-06
1.05846e-06
1.05701e-06
1.05701e-06
1.05701e-06
1.05867e-06
1.05882e-06
1.05893e-06
1.05963e-06
1.05948e-06
1.05886e-06
1.0589e-06
1.05888e-06
1.05889e-06
1.0589e-06
1.05895e-06
1.05963e-06
1.05952e-06
1.05965e-06
1.05966e-06
1.05966e-06
1.05965e-06
1.05e-06
1.04918e-06
1.04911e-06
1.04916e-06
1.04999e-06
1.05003e-06
1.05002e-06
1.0493e-06
1.04884e-06
1.04754e-06
1.04754e-06
1.04754e-06
1.04899e-06
1.04931e-06
1.05001e-06
1.0493e-06
1.0488e-06
1.04755e-06
1.04755e-06
1.04755e-06
1.04755e-06
1.04755e-06
1.04896e-06
1.0493e-06
1.05002e-06
1.05e-06
1.04884e-06
1.04755e-06
1.04755e-06
1.04755e-06
1.04755e-06
1.04755e-06
1.04755e-06
1.04755e-06
1.04899e-06
1.04939e-06
1.05005e-06
1.04918e-06
1.04754e-06
1.04755e-06
1.04755e-06
1.04755e-06
1.04755e-06
1.04755e-06
1.04755e-06
1.04755e-06
1.04754e-06
1.04943e-06
1.05018e-06
1.04911e-06
1.04754e-06
1.04755e-06
1.04755e-06
1.04755e-06
1.04755e-06
1.04755e-06
1.04755e-06
1.04755e-06
1.04754e-06
1.04942e-06
1.05019e-06
1.04916e-06
1.04754e-06
1.04755e-06
1.04755e-06
1.04755e-06
1.04755e-06
1.04755e-06
1.04755e-06
1.04755e-06
1.04754e-06
1.04942e-06
1.05019e-06
1.04999e-06
1.04899e-06
1.04755e-06
1.04755e-06
1.04755e-06
1.04755e-06
1.04755e-06
1.04755e-06
1.04755e-06
1.0492e-06
1.04943e-06
1.05018e-06
1.05003e-06
1.04931e-06
1.04896e-06
1.04755e-06
1.04755e-06
1.04755e-06
1.04755e-06
1.04755e-06
1.04916e-06
1.04935e-06
1.04948e-06
1.05001e-06
1.0493e-06
1.04899e-06
1.04754e-06
1.04754e-06
1.04754e-06
1.0492e-06
1.04935e-06
1.04946e-06
1.05016e-06
1.05002e-06
1.04939e-06
1.04943e-06
1.04942e-06
1.04942e-06
1.04943e-06
1.04948e-06
1.05016e-06
1.05005e-06
1.05018e-06
1.05019e-06
1.05019e-06
1.05018e-06
1.04053e-06
1.03971e-06
1.03964e-06
1.03969e-06
1.04052e-06
1.04056e-06
1.04055e-06
1.03983e-06
1.03937e-06
1.03807e-06
1.03808e-06
1.03807e-06
1.03952e-06
1.03984e-06
1.04054e-06
1.03983e-06
1.03933e-06
1.03808e-06
1.03808e-06
1.03808e-06
1.03808e-06
1.03808e-06
1.03949e-06
1.03983e-06
1.04055e-06
1.04053e-06
1.03937e-06
1.03808e-06
1.03808e-06
1.03808e-06
1.03808e-06
1.03808e-06
1.03808e-06
1.03808e-06
1.03952e-06
1.03992e-06
1.04058e-06
1.03971e-06
1.03807e-06
1.03808e-06
1.03808e-06
1.03808e-06
1.03808e-06
1.03808e-06
1.03808e-06
1.03808e-06
1.03807e-06
1.03996e-06
1.04072e-06
1.03964e-06
1.03808e-06
1.03808e-06
1.03808e-06
1.03808e-06
1.03808e-06
1.03808e-06
1.03808e-06
1.03808e-06
1.03808e-06
1.03995e-06
1.04073e-06
1.03969e-06
1.03807e-06
1.03808e-06
1.03808e-06
1.03808e-06
1.03808e-06
1.03808e-06
1.03808e-06
1.03808e-06
1.03807e-06
1.03995e-06
1.04073e-06
1.04052e-06
1.03952e-06
1.03808e-06
1.03808e-06
1.03808e-06
1.03808e-06
1.03808e-06
1.03808e-06
1.03808e-06
1.03973e-06
1.03996e-06
1.04071e-06
1.04056e-06
1.03984e-06
1.03949e-06
1.03808e-06
1.03808e-06
1.03808e-06
1.03808e-06
1.03808e-06
1.03969e-06
1.03988e-06
1.04001e-06
1.04054e-06
1.03983e-06
1.03952e-06
1.03807e-06
1.03808e-06
1.03807e-06
1.03973e-06
1.03988e-06
1.03999e-06
1.0407e-06
1.04055e-06
1.03992e-06
1.03996e-06
1.03995e-06
1.03995e-06
1.03996e-06
1.04001e-06
1.0407e-06
1.04058e-06
1.04072e-06
1.04073e-06
1.04073e-06
1.04071e-06
1.03106e-06
1.03024e-06
1.03017e-06
1.03022e-06
1.03105e-06
1.03109e-06
1.03108e-06
1.03036e-06
1.0299e-06
1.02861e-06
1.02861e-06
1.02861e-06
1.03005e-06
1.03037e-06
1.03107e-06
1.03036e-06
1.02986e-06
1.02861e-06
1.02861e-06
1.02861e-06
1.02861e-06
1.02861e-06
1.03003e-06
1.03037e-06
1.03108e-06
1.03106e-06
1.0299e-06
1.02861e-06
1.02861e-06
1.02861e-06
1.02861e-06
1.02861e-06
1.02861e-06
1.02861e-06
1.03005e-06
1.03045e-06
1.03111e-06
1.03024e-06
1.02861e-06
1.02861e-06
1.02861e-06
1.02861e-06
1.02861e-06
1.02861e-06
1.02861e-06
1.02861e-06
1.02861e-06
1.03049e-06
1.03125e-06
1.03017e-06
1.02861e-06
1.02861e-06
1.02861e-06
1.02861e-06
1.02861e-06
1.02861e-06
1.02861e-06
1.02861e-06
1.02861e-06
1.03048e-06
1.03126e-06
1.03022e-06
1.02861e-06
1.02861e-06
1.02861e-06
1.02861e-06
1.02861e-06
1.02861e-06
1.02861e-06
1.02861e-06
1.02861e-06
1.03048e-06
1.03126e-06
1.03105e-06
1.03005e-06
1.02861e-06
1.02861e-06
1.02861e-06
1.02861e-06
1.02861e-06
1.02861e-06
1.02861e-06
1.03026e-06
1.03049e-06
1.03124e-06
1.03109e-06
1.03037e-06
1.03003e-06
1.02861e-06
1.02861e-06
1.02861e-06
1.02861e-06
1.02861e-06
1.03023e-06
1.03041e-06
1.03055e-06
1.03107e-06
1.03037e-06
1.03005e-06
1.02861e-06
1.02861e-06
1.02861e-06
1.03026e-06
1.03041e-06
1.03052e-06
1.03123e-06
1.03108e-06
1.03045e-06
1.03049e-06
1.03048e-06
1.03048e-06
1.03049e-06
1.03055e-06
1.03123e-06
1.03111e-06
1.03125e-06
1.03126e-06
1.03126e-06
1.03124e-06
1.02159e-06
1.02077e-06
1.02071e-06
1.02075e-06
1.02158e-06
1.02162e-06
1.02162e-06
1.02089e-06
1.02043e-06
1.01914e-06
1.01914e-06
1.01914e-06
1.02058e-06
1.0209e-06
1.02161e-06
1.02089e-06
1.02039e-06
1.01914e-06
1.01914e-06
1.01914e-06
1.01914e-06
1.01914e-06
1.02056e-06
1.0209e-06
1.02161e-06
1.02159e-06
1.02043e-06
1.01914e-06
1.01914e-06
1.01914e-06
1.01914e-06
1.01914e-06
1.01914e-06
1.01914e-06
1.02058e-06
1.02098e-06
1.02164e-06
1.02077e-06
1.01914e-06
1.01914e-06
1.01914e-06
1.01914e-06
1.01914e-06
1.01914e-06
1.01914e-06
1.01914e-06
1.01914e-06
1.02102e-06
1.02178e-06
1.02071e-06
1.01914e-06
1.01914e-06
1.01914e-06
1.01914e-06
1.01914e-06
1.01914e-06
1.01914e-06
1.01914e-06
1.01914e-06
1.02101e-06
1.02179e-06
1.02075e-06
1.01914e-06
1.01914e-06
1.01914e-06
1.01914e-06
1.01914e-06
1.01914e-06
1.01914e-06
1.01914e-06
1.01914e-06
1.02101e-06
1.02179e-06
1.02158e-06
1.02058e-06
1.01914e-06
1.01914e-06
1.01914e-06
1.01914e-06
1.01914e-06
1.01914e-06
1.01914e-06
1.02079e-06
1.02102e-06
1.02177e-06
1.02162e-06
1.0209e-06
1.02056e-06
1.01914e-06
1.01914e-06
1.01914e-06
1.01914e-06
1.01914e-06
1.02076e-06
1.02094e-06
1.02108e-06
1.02161e-06
1.0209e-06
1.02058e-06
1.01914e-06
1.01914e-06
1.01914e-06
1.02079e-06
1.02094e-06
1.02105e-06
1.02176e-06
1.02161e-06
1.02098e-06
1.02102e-06
1.02101e-06
1.02101e-06
1.02102e-06
1.02108e-06
1.02176e-06
1.02164e-06
1.02178e-06
1.02179e-06
1.02179e-06
1.02177e-06
1.01212e-06
1.0113e-06
1.01124e-06
1.01129e-06
1.01211e-06
1.01215e-06
1.01215e-06
1.01142e-06
1.01096e-06
1.00967e-06
1.00967e-06
1.00967e-06
1.01111e-06
1.01143e-06
1.01214e-06
1.01142e-06
1.01093e-06
1.00967e-06
1.00967e-06
1.00967e-06
1.00967e-06
1.00967e-06
1.01109e-06
1.01143e-06
1.01214e-06
1.01212e-06
1.01096e-06
1.00967e-06
1.00967e-06
1.00967e-06
1.00967e-06
1.00967e-06
1.00967e-06
1.00967e-06
1.01111e-06
1.01151e-06
1.01217e-06
1.0113e-06
1.00967e-06
1.00967e-06
1.00967e-06
1.00967e-06
1.00967e-06
1.00967e-06
1.00967e-06
1.00967e-06
1.00967e-06
1.01155e-06
1.01231e-06
1.01124e-06
1.00967e-06
1.00967e-06
1.00967e-06
1.00967e-06
1.00967e-06
1.00967e-06
1.00967e-06
1.00967e-06
1.00967e-06
1.01154e-06
1.01232e-06
1.01129e-06
1.00967e-06
1.00967e-06
1.00967e-06
1.00967e-06
1.00967e-06
1.00967e-06
1.00967e-06
1.00967e-06
1.00967e-06
1.01154e-06
1.01232e-06
1.01211e-06
1.01111e-06
1.00967e-06
1.00967e-06
1.00967e-06
1.00967e-06
1.00967e-06
1.00967e-06
1.00967e-06
1.01132e-06
1.01155e-06
1.0123e-06
1.01215e-06
1.01143e-06
1.01109e-06
1.00967e-06
1.00967e-06
1.00967e-06
1.00967e-06
1.00967e-06
1.01129e-06
1.01147e-06
1.01161e-06
1.01214e-06
1.01143e-06
1.01111e-06
1.00967e-06
1.00967e-06
1.00967e-06
1.01132e-06
1.01147e-06
1.01158e-06
1.01229e-06
1.01214e-06
1.01151e-06
1.01155e-06
1.01154e-06
1.01154e-06
1.01155e-06
1.01161e-06
1.01229e-06
1.01217e-06
1.01231e-06
1.01232e-06
1.01232e-06
1.0123e-06
1.00265e-06
1.00183e-06
1.00177e-06
1.00182e-06
1.00265e-06
1.00268e-06
1.00268e-06
1.00195e-06
1.00149e-06
1.0002e-06
1.0002e-06
1.0002e-06
1.00164e-06
1.00196e-06
1.00267e-06
1.00195e-06
1.00146e-06
1.0002e-06
1.0002e-06
1.0002e-06
1.0002e-06
1.0002e-06
1.00162e-06
1.00196e-06
1.00267e-06
1.00265e-06
1.00149e-06
1.0002e-06
1.0002e-06
1.0002e-06
1.0002e-06
1.0002e-06
1.0002e-06
1.0002e-06
1.00164e-06
1.00204e-06
1.0027e-06
1.00183e-06
1.0002e-06
1.0002e-06
1.0002e-06
1.0002e-06
1.0002e-06
1.0002e-06
1.0002e-06
1.0002e-06
1.0002e-06
1.00208e-06
1.00284e-06
1.00177e-06
1.0002e-06
1.0002e-06
1.0002e-06
1.0002e-06
1.0002e-06
1.0002e-06
1.0002e-06
1.0002e-06
1.0002e-06
1.00207e-06
1.00285e-06
1.00182e-06
1.0002e-06
1.0002e-06
1.0002e-06
1.0002e-06
1.0002e-06
1.0002e-06
1.0002e-06
1.0002e-06
1.0002e-06
1.00208e-06
1.00285e-06
1.00264e-06
1.00164e-06
1.0002e-06
1.0002e-06
1.0002e-06
1.0002e-06
1.0002e-06
1.0002e-06
1.0002e-06
1.00185e-06
1.00208e-06
1.00284e-06
1.00268e-06
1.00196e-06
1.00162e-06
1.0002e-06
1.0002e-06
1.0002e-06
1.0002e-06
1.0002e-06
1.00182e-06
1.002e-06
1.00214e-06
1.00267e-06
1.00196e-06
1.00164e-06
1.0002e-06
1.0002e-06
1.0002e-06
1.00185e-06
1.002e-06
1.00211e-06
1.00282e-06
1.00267e-06
1.00204e-06
1.00208e-06
1.00207e-06
1.00208e-06
1.00208e-06
1.00214e-06
1.00282e-06
1.0027e-06
1.00284e-06
1.00285e-06
1.00285e-06
1.00284e-06
9.93183e-07
9.92364e-07
9.92298e-07
9.92347e-07
9.93176e-07
9.93214e-07
9.93207e-07
9.92481e-07
9.92023e-07
9.90729e-07
9.90729e-07
9.90729e-07
9.92172e-07
9.92492e-07
9.93198e-07
9.92481e-07
9.91987e-07
9.90729e-07
9.9073e-07
9.90729e-07
9.9073e-07
9.90729e-07
9.92149e-07
9.92489e-07
9.93201e-07
9.93183e-07
9.92023e-07
9.90729e-07
9.9073e-07
9.90729e-07
9.90729e-07
9.90729e-07
9.9073e-07
9.90729e-07
9.92173e-07
9.92574e-07
9.93234e-07
9.92364e-07
9.90729e-07
9.9073e-07
9.90729e-07
9.9073e-07
9.90729e-07
9.9073e-07
9.90729e-07
9.9073e-07
9.90729e-07
9.92614e-07
9.9337e-07
9.92298e-07
9.90729e-07
9.90729e-07
9.90729e-07
9.90729e-07
9.90729e-07
9.90729e-07
9.90729e-07
9.90729e-07
9.90729e-07
9.92601e-07
9.9338e-07
9.92347e-07
9.90729e-07
9.9073e-07
9.90729e-07
9.9073e-07
9.90729e-07
9.9073e-07
9.90729e-07
9.9073e-07
9.90729e-07
9.92606e-07
9.9338e-07
9.93176e-07
9.92172e-07
9.90729e-07
9.9073e-07
9.90729e-07
9.90729e-07
9.90729e-07
9.9073e-07
9.90729e-07
9.92382e-07
9.92616e-07
9.93366e-07
9.93214e-07
9.92492e-07
9.92148e-07
9.90729e-07
9.9073e-07
9.90729e-07
9.9073e-07
9.90729e-07
9.92349e-07
9.92533e-07
9.92669e-07
9.93198e-07
9.92489e-07
9.92173e-07
9.90729e-07
9.90729e-07
9.90729e-07
9.92382e-07
9.92533e-07
9.92645e-07
9.9335e-07
9.93201e-07
9.92574e-07
9.92614e-07
9.92601e-07
9.92606e-07
9.92616e-07
9.92669e-07
9.9335e-07
9.93234e-07
9.9337e-07
9.9338e-07
9.9338e-07
9.93366e-07
9.83714e-07
9.82896e-07
9.82829e-07
9.82878e-07
9.83707e-07
9.83745e-07
9.83739e-07
9.83012e-07
9.82554e-07
9.8126e-07
9.8126e-07
9.8126e-07
9.82703e-07
9.83023e-07
9.83729e-07
9.83012e-07
9.82518e-07
9.8126e-07
9.81261e-07
9.8126e-07
9.81261e-07
9.8126e-07
9.8268e-07
9.8302e-07
9.83732e-07
9.83714e-07
9.82554e-07
9.8126e-07
9.81261e-07
9.8126e-07
9.8126e-07
9.8126e-07
9.81261e-07
9.8126e-07
9.82704e-07
9.83105e-07
9.83765e-07
9.82896e-07
9.8126e-07
9.81261e-07
9.8126e-07
9.81261e-07
9.8126e-07
9.81261e-07
9.8126e-07
9.81261e-07
9.8126e-07
9.83145e-07
9.83901e-07
9.82829e-07
9.8126e-07
9.8126e-07
9.8126e-07
9.8126e-07
9.8126e-07
9.8126e-07
9.8126e-07
9.8126e-07
9.8126e-07
9.83132e-07
9.83911e-07
9.82878e-07
9.8126e-07
9.81261e-07
9.8126e-07
9.81261e-07
9.8126e-07
9.81261e-07
9.8126e-07
9.81261e-07
9.8126e-07
9.83137e-07
9.83911e-07
9.83707e-07
9.82703e-07
9.8126e-07
9.81261e-07
9.8126e-07
9.8126e-07
9.8126e-07
9.81261e-07
9.8126e-07
9.82913e-07
9.83147e-07
9.83897e-07
9.83745e-07
9.83023e-07
9.8268e-07
9.8126e-07
9.81261e-07
9.8126e-07
9.81261e-07
9.8126e-07
9.8288e-07
9.83065e-07
9.832e-07
9.83729e-07
9.8302e-07
9.82704e-07
9.8126e-07
9.8126e-07
9.8126e-07
9.82913e-07
9.83065e-07
9.83176e-07
9.83881e-07
9.83732e-07
9.83105e-07
9.83145e-07
9.83132e-07
9.83137e-07
9.83147e-07
9.832e-07
9.83881e-07
9.83765e-07
9.83901e-07
9.83911e-07
9.83911e-07
9.83897e-07
9.74245e-07
9.73427e-07
9.73361e-07
9.73409e-07
9.74238e-07
9.74276e-07
9.7427e-07
9.73543e-07
9.73085e-07
9.71791e-07
9.71791e-07
9.71791e-07
9.73234e-07
9.73554e-07
9.7426e-07
9.73543e-07
9.7305e-07
9.71791e-07
9.71792e-07
9.71791e-07
9.71792e-07
9.71791e-07
9.73211e-07
9.73551e-07
9.74264e-07
9.74245e-07
9.73085e-07
9.71791e-07
9.71792e-07
9.71791e-07
9.71792e-07
9.71791e-07
9.71792e-07
9.71791e-07
9.73235e-07
9.73636e-07
9.74296e-07
9.73427e-07
9.71791e-07
9.71792e-07
9.71791e-07
9.71792e-07
9.71791e-07
9.71792e-07
9.71791e-07
9.71792e-07
9.71791e-07
9.73677e-07
9.74432e-07
9.7336e-07
9.71791e-07
9.71791e-07
9.71792e-07
9.71791e-07
9.71791e-07
9.71791e-07
9.71792e-07
9.71791e-07
9.71791e-07
9.73663e-07
9.74442e-07
9.73409e-07
9.71791e-07
9.71792e-07
9.71791e-07
9.71792e-07
9.71791e-07
9.71792e-07
9.71791e-07
9.71792e-07
9.71791e-07
9.73668e-07
9.74443e-07
9.74238e-07
9.73234e-07
9.71791e-07
9.71792e-07
9.71791e-07
9.71792e-07
9.71791e-07
9.71792e-07
9.71791e-07
9.73445e-07
9.73678e-07
9.74429e-07
9.74276e-07
9.73554e-07
9.73211e-07
9.71791e-07
9.71792e-07
9.71791e-07
9.71792e-07
9.71791e-07
9.73411e-07
9.73596e-07
9.73731e-07
9.7426e-07
9.73551e-07
9.73235e-07
9.71791e-07
9.71791e-07
9.71791e-07
9.73445e-07
9.73596e-07
9.73707e-07
9.74412e-07
9.74264e-07
9.73636e-07
9.73677e-07
9.73663e-07
9.73668e-07
9.73678e-07
9.73731e-07
9.74412e-07
9.74296e-07
9.74432e-07
9.74442e-07
9.74443e-07
9.74429e-07
9.64776e-07
9.63958e-07
9.63892e-07
9.6394e-07
9.64769e-07
9.64807e-07
9.64801e-07
9.64074e-07
9.63616e-07
9.62322e-07
9.62322e-07
9.62322e-07
9.63765e-07
9.64085e-07
9.64791e-07
9.64074e-07
9.63581e-07
9.62322e-07
9.62323e-07
9.62323e-07
9.62323e-07
9.62322e-07
9.63742e-07
9.64082e-07
9.64795e-07
9.64776e-07
9.63616e-07
9.62322e-07
9.62323e-07
9.62322e-07
9.62323e-07
9.62322e-07
9.62323e-07
9.62322e-07
9.63767e-07
9.64167e-07
9.64827e-07
9.63958e-07
9.62322e-07
9.62323e-07
9.62322e-07
9.62323e-07
9.62322e-07
9.62323e-07
9.62322e-07
9.62323e-07
9.62322e-07
9.64208e-07
9.64963e-07
9.63892e-07
9.62322e-07
9.62323e-07
9.62323e-07
9.62322e-07
9.62323e-07
9.62322e-07
9.62323e-07
9.62323e-07
9.62322e-07
9.64194e-07
9.64973e-07
9.6394e-07
9.62322e-07
9.62323e-07
9.62322e-07
9.62323e-07
9.62322e-07
9.62323e-07
9.62322e-07
9.62323e-07
9.62322e-07
9.642e-07
9.64974e-07
9.64769e-07
9.63765e-07
9.62322e-07
9.62323e-07
9.62322e-07
9.62323e-07
9.62322e-07
9.62323e-07
9.62322e-07
9.63976e-07
9.64209e-07
9.6496e-07
9.64807e-07
9.64085e-07
9.63742e-07
9.62322e-07
9.62323e-07
9.62323e-07
9.62323e-07
9.62322e-07
9.63942e-07
9.64127e-07
9.64263e-07
9.64791e-07
9.64082e-07
9.63767e-07
9.62322e-07
9.62322e-07
9.62322e-07
9.63976e-07
9.64127e-07
9.64238e-07
9.64943e-07
9.64795e-07
9.64167e-07
9.64208e-07
9.64194e-07
9.642e-07
9.64209e-07
9.64263e-07
9.64943e-07
9.64827e-07
9.64963e-07
9.64973e-07
9.64974e-07
9.6496e-07
9.55308e-07
9.54489e-07
9.54423e-07
9.54471e-07
9.553e-07
9.55338e-07
9.55332e-07
9.54605e-07
9.54147e-07
9.52853e-07
9.52854e-07
9.52853e-07
9.54296e-07
9.54616e-07
9.55322e-07
9.54605e-07
9.54112e-07
9.52853e-07
9.52855e-07
9.52854e-07
9.52855e-07
9.52853e-07
9.54273e-07
9.54614e-07
9.55326e-07
9.55307e-07
9.54147e-07
9.52853e-07
9.52854e-07
9.52853e-07
9.52854e-07
9.52853e-07
9.52854e-07
9.52853e-07
9.54298e-07
9.54698e-07
9.55358e-07
9.54489e-07
9.52853e-07
9.52855e-07
9.52853e-07
9.52854e-07
9.52853e-07
9.52854e-07
9.52853e-07
9.52855e-07
9.52853e-07
9.54739e-07
9.55494e-07
9.54423e-07
9.52854e-07
9.52854e-07
9.52854e-07
9.52853e-07
9.52854e-07
9.52853e-07
9.52854e-07
9.52854e-07
9.52854e-07
9.54725e-07
9.55504e-07
9.54471e-07
9.52853e-07
9.52855e-07
9.52853e-07
9.52854e-07
9.52854e-07
9.52854e-07
9.52853e-07
9.52855e-07
9.52853e-07
9.54731e-07
9.55505e-07
9.553e-07
9.54296e-07
9.52853e-07
9.52854e-07
9.52853e-07
9.52854e-07
9.52853e-07
9.52854e-07
9.52853e-07
9.54507e-07
9.5474e-07
9.55491e-07
9.55338e-07
9.54616e-07
9.54273e-07
9.52853e-07
9.52855e-07
9.52854e-07
9.52855e-07
9.52853e-07
9.54473e-07
9.54658e-07
9.54794e-07
9.55322e-07
9.54614e-07
9.54298e-07
9.52853e-07
9.52854e-07
9.52853e-07
9.54507e-07
9.54658e-07
9.54769e-07
9.55474e-07
9.55326e-07
9.54698e-07
9.54739e-07
9.54725e-07
9.54731e-07
9.5474e-07
9.54794e-07
9.55474e-07
9.55358e-07
9.55494e-07
9.55504e-07
9.55505e-07
9.55491e-07
9.45839e-07
9.4502e-07
9.44954e-07
9.45002e-07
9.45831e-07
9.45869e-07
9.45863e-07
9.45136e-07
9.44678e-07
9.43384e-07
9.43385e-07
9.43384e-07
9.44827e-07
9.45147e-07
9.45853e-07
9.45136e-07
9.44643e-07
9.43384e-07
9.43386e-07
9.43385e-07
9.43386e-07
9.43384e-07
9.44804e-07
9.45145e-07
9.45857e-07
9.45838e-07
9.44678e-07
9.43384e-07
9.43385e-07
9.43384e-07
9.43385e-07
9.43384e-07
9.43385e-07
9.43384e-07
9.44829e-07
9.45229e-07
9.45889e-07
9.4502e-07
9.43384e-07
9.43386e-07
9.43384e-07
9.43385e-07
9.43385e-07
9.43385e-07
9.43384e-07
9.43386e-07
9.43384e-07
9.4527e-07
9.46025e-07
9.44954e-07
9.43385e-07
9.43385e-07
9.43385e-07
9.43385e-07
9.43385e-07
9.43385e-07
9.43385e-07
9.43385e-07
9.43385e-07
9.45256e-07
9.46035e-07
9.45002e-07
9.43384e-07
9.43386e-07
9.43384e-07
9.43385e-07
9.43385e-07
9.43385e-07
9.43384e-07
9.43386e-07
9.43384e-07
9.45262e-07
9.46036e-07
9.45831e-07
9.44827e-07
9.43384e-07
9.43385e-07
9.43384e-07
9.43385e-07
9.43384e-07
9.43385e-07
9.43384e-07
9.45038e-07
9.45271e-07
9.46022e-07
9.45869e-07
9.45147e-07
9.44804e-07
9.43384e-07
9.43386e-07
9.43385e-07
9.43386e-07
9.43384e-07
9.45004e-07
9.45189e-07
9.45325e-07
9.45853e-07
9.45145e-07
9.44829e-07
9.43384e-07
9.43385e-07
9.43384e-07
9.45038e-07
9.45189e-07
9.453e-07
9.46006e-07
9.45857e-07
9.45229e-07
9.4527e-07
9.45256e-07
9.45262e-07
9.45271e-07
9.45325e-07
9.46005e-07
9.45889e-07
9.46025e-07
9.46035e-07
9.46036e-07
9.46022e-07
9.3637e-07
9.35551e-07
9.35485e-07
9.35533e-07
9.36362e-07
9.36401e-07
9.36394e-07
9.35667e-07
9.35209e-07
9.33915e-07
9.33916e-07
9.33915e-07
9.35358e-07
9.35678e-07
9.36384e-07
9.35667e-07
9.35174e-07
9.33915e-07
9.33917e-07
9.33916e-07
9.33917e-07
9.33915e-07
9.35335e-07
9.35676e-07
9.36388e-07
9.3637e-07
9.35209e-07
9.33915e-07
9.33916e-07
9.33915e-07
9.33916e-07
9.33915e-07
9.33916e-07
9.33915e-07
9.3536e-07
9.3576e-07
9.36421e-07
9.35551e-07
9.33915e-07
9.33917e-07
9.33915e-07
9.33917e-07
9.33916e-07
9.33917e-07
9.33915e-07
9.33917e-07
9.33915e-07
9.35801e-07
9.36556e-07
9.35485e-07
9.33916e-07
9.33916e-07
9.33916e-07
9.33916e-07
9.33916e-07
9.33916e-07
9.33916e-07
9.33916e-07
9.33916e-07
9.35787e-07
9.36566e-07
9.35533e-07
9.33915e-07
9.33917e-07
9.33915e-07
9.33917e-07
9.33916e-07
9.33917e-07
9.33915e-07
9.33917e-07
9.33915e-07
9.35793e-07
9.36567e-07