/*--------------------------------*- C++ -*----------------------------------*\
| =========                 |                                                 |
| \\      /  F ield         | OpenFOAM: The Open Source CFD Toolbox           |
|  \\    /   O peration     | Version:  v2012                                 |
|   \\  /    A nd           | Website:  www.openfoam.com                      |
|    \\/     M anipulation  |                                                 |
\*---------------------------------------------------------------------------*/
FoamFile
{
    version     2.0;
    format      ascii;
    class       volScalarField;
    location    "53";
    object      p;
}
// * * * * * * * * * * * * * * * * * * * * * * * * * * * * * * * * * * * * * //

dimensions      [0 2 -2 0 0 0 0];


internalField   nonuniform List<scalar> 
292667
(
1.17185e-06
1.16253e-06
1.16178e-06
1.16185e-06
1.16286e-06
1.17275e-06
1.16274e-06
1.16016e-06
1.15864e-06
1.15802e-06
1.1581e-06
1.15891e-06
1.16065e-06
1.16347e-06
1.16274e-06
1.1594e-06
1.15732e-06
1.15617e-06
1.15568e-06
1.15575e-06
1.15638e-06
1.15771e-06
1.16006e-06
1.16368e-06
1.17185e-06
1.16016e-06
1.15732e-06
1.15563e-06
1.15468e-06
1.15428e-06
1.15433e-06
1.15486e-06
1.15596e-06
1.15787e-06
1.16105e-06
1.17146e-06
1.16253e-06
1.15864e-06
1.15617e-06
1.15468e-06
1.15384e-06
1.15348e-06
1.15353e-06
1.154e-06
1.15498e-06
1.15667e-06
1.15947e-06
1.16611e-06
1.16178e-06
1.15802e-06
1.15568e-06
1.15428e-06
1.15348e-06
1.15313e-06
1.15318e-06
1.15363e-06
1.15456e-06
1.15616e-06
1.15882e-06
1.16448e-06
1.16185e-06
1.1581e-06
1.15575e-06
1.15433e-06
1.15353e-06
1.15318e-06
1.15323e-06
1.15368e-06
1.15462e-06
1.15623e-06
1.15891e-06
1.1648e-06
1.16286e-06
1.15891e-06
1.15638e-06
1.15486e-06
1.154e-06
1.15363e-06
1.15368e-06
1.15417e-06
1.15517e-06
1.1569e-06
1.15978e-06
1.16642e-06
1.17275e-06
1.16065e-06
1.15771e-06
1.15596e-06
1.15498e-06
1.15456e-06
1.15462e-06
1.15517e-06
1.15631e-06
1.15832e-06
1.16161e-06
1.17135e-06
1.16347e-06
1.16006e-06
1.15787e-06
1.15667e-06
1.15616e-06
1.15623e-06
1.1569e-06
1.15832e-06
1.1608e-06
1.16706e-06
1.16368e-06
1.16105e-06
1.15947e-06
1.15882e-06
1.15891e-06
1.15978e-06
1.16161e-06
1.16706e-06
1.17146e-06
1.16611e-06
1.16448e-06
1.1648e-06
1.16642e-06
1.17135e-06
1.14583e-06
1.14501e-06
1.14498e-06
1.14502e-06
1.14581e-06
1.1457e-06
1.14587e-06
1.14523e-06
1.14485e-06
1.14351e-06
1.14349e-06
1.14351e-06
1.14502e-06
1.14527e-06
1.1459e-06
1.14523e-06
1.14485e-06
1.14355e-06
1.1435e-06
1.14355e-06
1.1435e-06
1.14355e-06
1.145e-06
1.14525e-06
1.14587e-06
1.14583e-06
1.14485e-06
1.14355e-06
1.14349e-06
1.14352e-06
1.14351e-06
1.14352e-06
1.14349e-06
1.14355e-06
1.14499e-06
1.14527e-06
1.14593e-06
1.14501e-06
1.14351e-06
1.1435e-06
1.14352e-06
1.14349e-06
1.14349e-06
1.14349e-06
1.14352e-06
1.1435e-06
1.14351e-06
1.14542e-06
1.14607e-06
1.14498e-06
1.14349e-06
1.14355e-06
1.14351e-06
1.14349e-06
1.14348e-06
1.14349e-06
1.14351e-06
1.14355e-06
1.14349e-06
1.14543e-06
1.14597e-06
1.14502e-06
1.14351e-06
1.1435e-06
1.14352e-06
1.14349e-06
1.14349e-06
1.14349e-06
1.14352e-06
1.1435e-06
1.14351e-06
1.14543e-06
1.146e-06
1.14581e-06
1.14502e-06
1.14355e-06
1.14349e-06
1.14352e-06
1.14351e-06
1.14353e-06
1.14349e-06
1.14355e-06
1.14517e-06
1.14533e-06
1.14603e-06
1.1457e-06
1.14527e-06
1.145e-06
1.14355e-06
1.1435e-06
1.14355e-06
1.1435e-06
1.14355e-06
1.14514e-06
1.1453e-06
1.14531e-06
1.1459e-06
1.14525e-06
1.14499e-06
1.14351e-06
1.14349e-06
1.14351e-06
1.14517e-06
1.1453e-06
1.14537e-06
1.146e-06
1.14587e-06
1.14527e-06
1.14542e-06
1.14543e-06
1.14543e-06
1.14533e-06
1.14531e-06
1.146e-06
1.14593e-06
1.14607e-06
1.14597e-06
1.146e-06
1.14603e-06
1.13608e-06
1.13524e-06
1.13518e-06
1.13523e-06
1.13607e-06
1.13611e-06
1.1361e-06
1.13537e-06
1.13494e-06
1.13362e-06
1.13362e-06
1.13362e-06
1.13509e-06
1.1354e-06
1.13609e-06
1.13537e-06
1.13492e-06
1.13367e-06
1.13367e-06
1.13371e-06
1.13367e-06
1.13367e-06
1.13509e-06
1.1354e-06
1.13609e-06
1.13608e-06
1.13494e-06
1.13367e-06
1.13368e-06
1.13373e-06
1.13373e-06
1.13373e-06
1.13368e-06
1.13367e-06
1.1351e-06
1.13545e-06
1.13613e-06
1.13524e-06
1.13362e-06
1.13367e-06
1.13373e-06
1.13374e-06
1.13376e-06
1.13374e-06
1.13373e-06
1.13367e-06
1.13362e-06
1.1355e-06
1.13626e-06
1.13518e-06
1.13362e-06
1.13371e-06
1.13373e-06
1.13376e-06
1.13377e-06
1.13376e-06
1.13373e-06
1.13371e-06
1.13362e-06
1.1355e-06
1.13627e-06
1.13523e-06
1.13362e-06
1.13367e-06
1.13373e-06
1.13374e-06
1.13376e-06
1.13374e-06
1.13373e-06
1.13367e-06
1.13362e-06
1.1355e-06
1.13627e-06
1.13607e-06
1.13509e-06
1.13367e-06
1.13368e-06
1.13373e-06
1.13373e-06
1.13373e-06
1.13368e-06
1.13367e-06
1.1353e-06
1.13549e-06
1.13626e-06
1.13611e-06
1.1354e-06
1.13509e-06
1.13367e-06
1.13367e-06
1.13371e-06
1.13367e-06
1.13367e-06
1.13527e-06
1.13543e-06
1.13553e-06
1.13609e-06
1.1354e-06
1.1351e-06
1.13362e-06
1.13362e-06
1.13362e-06
1.1353e-06
1.13543e-06
1.13551e-06
1.13624e-06
1.13609e-06
1.13545e-06
1.1355e-06
1.1355e-06
1.1355e-06
1.13549e-06
1.13553e-06
1.13624e-06
1.13613e-06
1.13626e-06
1.13627e-06
1.13627e-06
1.13626e-06
1.12637e-06
1.12552e-06
1.12545e-06
1.1255e-06
1.12635e-06
1.1264e-06
1.12639e-06
1.12564e-06
1.12519e-06
1.12385e-06
1.12385e-06
1.12385e-06
1.12533e-06
1.12565e-06
1.12638e-06
1.12564e-06
1.12516e-06
1.12388e-06
1.12389e-06
1.12391e-06
1.12389e-06
1.12388e-06
1.12532e-06
1.12565e-06
1.12638e-06
1.12637e-06
1.12519e-06
1.12388e-06
1.1239e-06
1.12394e-06
1.12394e-06
1.12394e-06
1.1239e-06
1.12388e-06
1.12534e-06
1.12573e-06
1.12642e-06
1.12552e-06
1.12385e-06
1.12389e-06
1.12394e-06
1.12395e-06
1.12397e-06
1.12395e-06
1.12394e-06
1.12389e-06
1.12385e-06
1.12577e-06
1.12655e-06
1.12545e-06
1.12385e-06
1.12391e-06
1.12394e-06
1.12397e-06
1.12397e-06
1.12397e-06
1.12394e-06
1.12391e-06
1.12385e-06
1.12576e-06
1.12656e-06
1.1255e-06
1.12385e-06
1.12389e-06
1.12394e-06
1.12395e-06
1.12397e-06
1.12395e-06
1.12394e-06
1.12389e-06
1.12385e-06
1.12576e-06
1.12656e-06
1.12635e-06
1.12533e-06
1.12388e-06
1.1239e-06
1.12394e-06
1.12394e-06
1.12394e-06
1.1239e-06
1.12388e-06
1.12554e-06
1.12577e-06
1.12655e-06
1.1264e-06
1.12565e-06
1.12532e-06
1.12388e-06
1.12389e-06
1.12391e-06
1.12389e-06
1.12388e-06
1.12552e-06
1.12569e-06
1.12582e-06
1.12638e-06
1.12565e-06
1.12534e-06
1.12385e-06
1.12385e-06
1.12385e-06
1.12554e-06
1.12569e-06
1.12579e-06
1.12653e-06
1.12638e-06
1.12573e-06
1.12577e-06
1.12576e-06
1.12576e-06
1.12577e-06
1.12582e-06
1.12653e-06
1.12642e-06
1.12655e-06
1.12656e-06
1.12656e-06
1.12655e-06
1.11665e-06
1.1158e-06
1.11573e-06
1.11578e-06
1.11664e-06
1.11668e-06
1.11668e-06
1.11592e-06
1.11546e-06
1.11412e-06
1.11412e-06
1.11412e-06
1.11561e-06
1.11593e-06
1.11666e-06
1.11592e-06
1.11543e-06
1.11413e-06
1.11414e-06
1.11415e-06
1.11414e-06
1.11413e-06
1.11559e-06
1.11593e-06
1.11667e-06
1.11665e-06
1.11546e-06
1.11413e-06
1.11415e-06
1.11417e-06
1.11417e-06
1.11417e-06
1.11415e-06
1.11413e-06
1.11561e-06
1.11601e-06
1.1167e-06
1.1158e-06
1.11412e-06
1.11414e-06
1.11417e-06
1.11418e-06
1.11419e-06
1.11418e-06
1.11417e-06
1.11414e-06
1.11412e-06
1.11605e-06
1.11684e-06
1.11573e-06
1.11412e-06
1.11415e-06
1.11417e-06
1.11419e-06
1.11419e-06
1.11419e-06
1.11417e-06
1.11415e-06
1.11412e-06
1.11603e-06
1.11684e-06
1.11578e-06
1.11412e-06
1.11414e-06
1.11417e-06
1.11418e-06
1.11419e-06
1.11418e-06
1.11417e-06
1.11414e-06
1.11412e-06
1.11604e-06
1.11684e-06
1.11664e-06
1.11561e-06
1.11413e-06
1.11415e-06
1.11417e-06
1.11417e-06
1.11417e-06
1.11415e-06
1.11413e-06
1.11581e-06
1.11605e-06
1.11683e-06
1.11668e-06
1.11593e-06
1.11559e-06
1.11413e-06
1.11414e-06
1.11415e-06
1.11414e-06
1.11413e-06
1.11578e-06
1.11597e-06
1.1161e-06
1.11666e-06
1.11593e-06
1.11561e-06
1.11412e-06
1.11412e-06
1.11412e-06
1.11581e-06
1.11597e-06
1.11608e-06
1.11682e-06
1.11667e-06
1.11601e-06
1.11605e-06
1.11603e-06
1.11604e-06
1.11605e-06
1.1161e-06
1.11682e-06
1.1167e-06
1.11684e-06
1.11684e-06
1.11684e-06
1.11683e-06
1.10694e-06
1.10608e-06
1.10602e-06
1.10606e-06
1.10692e-06
1.10697e-06
1.10696e-06
1.1062e-06
1.10574e-06
1.10439e-06
1.10439e-06
1.10439e-06
1.10588e-06
1.10621e-06
1.10695e-06
1.1062e-06
1.1057e-06
1.1044e-06
1.1044e-06
1.10441e-06
1.1044e-06
1.1044e-06
1.10586e-06
1.10621e-06
1.10695e-06
1.10694e-06
1.10574e-06
1.1044e-06
1.10441e-06
1.10442e-06
1.10442e-06
1.10442e-06
1.10441e-06
1.1044e-06
1.10589e-06
1.10629e-06
1.10699e-06
1.10608e-06
1.10439e-06
1.1044e-06
1.10442e-06
1.10443e-06
1.10443e-06
1.10443e-06
1.10442e-06
1.1044e-06
1.10439e-06
1.10633e-06
1.10712e-06
1.10602e-06
1.10439e-06
1.10441e-06
1.10442e-06
1.10443e-06
1.10444e-06
1.10443e-06
1.10442e-06
1.10441e-06
1.10439e-06
1.10631e-06
1.10713e-06
1.10606e-06
1.10439e-06
1.1044e-06
1.10442e-06
1.10443e-06
1.10443e-06
1.10443e-06
1.10442e-06
1.1044e-06
1.10439e-06
1.10632e-06
1.10713e-06
1.10692e-06
1.10588e-06
1.1044e-06
1.10441e-06
1.10442e-06
1.10442e-06
1.10442e-06
1.10441e-06
1.1044e-06
1.10609e-06
1.10633e-06
1.10712e-06
1.10697e-06
1.10621e-06
1.10586e-06
1.1044e-06
1.1044e-06
1.10441e-06
1.1044e-06
1.1044e-06
1.10606e-06
1.10625e-06
1.10639e-06
1.10695e-06
1.10621e-06
1.10589e-06
1.10439e-06
1.10439e-06
1.10439e-06
1.10609e-06
1.10625e-06
1.10636e-06
1.1071e-06
1.10695e-06
1.10629e-06
1.10633e-06
1.10631e-06
1.10632e-06
1.10633e-06
1.10639e-06
1.1071e-06
1.10699e-06
1.10712e-06
1.10713e-06
1.10713e-06
1.10712e-06
1.09722e-06
1.09636e-06
1.0963e-06
1.09635e-06
1.0972e-06
1.09725e-06
1.09725e-06
1.09649e-06
1.09602e-06
1.09467e-06
1.09467e-06
1.09467e-06
1.09616e-06
1.09649e-06
1.09723e-06
1.09649e-06
1.09598e-06
1.09467e-06
1.09468e-06
1.09468e-06
1.09468e-06
1.09467e-06
1.09614e-06
1.09649e-06
1.09723e-06
1.09722e-06
1.09602e-06
1.09467e-06
1.09468e-06
1.09468e-06
1.09469e-06
1.09468e-06
1.09468e-06
1.09467e-06
1.09617e-06
1.09658e-06
1.09727e-06
1.09636e-06
1.09467e-06
1.09468e-06
1.09468e-06
1.09469e-06
1.09469e-06
1.09469e-06
1.09468e-06
1.09468e-06
1.09467e-06
1.09661e-06
1.0974e-06
1.0963e-06
1.09467e-06
1.09468e-06
1.09469e-06
1.09469e-06
1.09469e-06
1.09469e-06
1.09469e-06
1.09468e-06
1.09467e-06
1.0966e-06
1.09741e-06
1.09635e-06
1.09467e-06
1.09468e-06
1.09468e-06
1.09469e-06
1.09469e-06
1.09469e-06
1.09468e-06
1.09468e-06
1.09467e-06
1.0966e-06
1.09741e-06
1.0972e-06
1.09616e-06
1.09467e-06
1.09468e-06
1.09468e-06
1.09469e-06
1.09468e-06
1.09468e-06
1.09467e-06
1.09637e-06
1.09661e-06
1.0974e-06
1.09725e-06
1.09649e-06
1.09614e-06
1.09467e-06
1.09468e-06
1.09468e-06
1.09468e-06
1.09467e-06
1.09634e-06
1.09653e-06
1.09667e-06
1.09723e-06
1.09649e-06
1.09617e-06
1.09467e-06
1.09467e-06
1.09467e-06
1.09637e-06
1.09653e-06
1.09665e-06
1.09738e-06
1.09723e-06
1.09658e-06
1.09661e-06
1.0966e-06
1.0966e-06
1.09661e-06
1.09667e-06
1.09738e-06
1.09727e-06
1.0974e-06
1.09741e-06
1.09741e-06
1.0974e-06
1.0875e-06
1.08665e-06
1.08658e-06
1.08663e-06
1.08749e-06
1.08753e-06
1.08753e-06
1.08677e-06
1.0863e-06
1.08495e-06
1.08495e-06
1.08495e-06
1.08645e-06
1.08677e-06
1.08751e-06
1.08677e-06
1.08626e-06
1.08495e-06
1.08495e-06
1.08495e-06
1.08495e-06
1.08495e-06
1.08642e-06
1.08677e-06
1.08751e-06
1.0875e-06
1.0863e-06
1.08495e-06
1.08495e-06
1.08496e-06
1.08496e-06
1.08496e-06
1.08495e-06
1.08495e-06
1.08645e-06
1.08686e-06
1.08755e-06
1.08665e-06
1.08495e-06
1.08495e-06
1.08496e-06
1.08496e-06
1.08496e-06
1.08496e-06
1.08496e-06
1.08495e-06
1.08495e-06
1.08689e-06
1.08768e-06
1.08658e-06
1.08495e-06
1.08495e-06
1.08496e-06
1.08496e-06
1.08496e-06
1.08496e-06
1.08496e-06
1.08495e-06
1.08495e-06
1.08688e-06
1.08769e-06
1.08663e-06
1.08495e-06
1.08495e-06
1.08496e-06
1.08496e-06
1.08496e-06
1.08496e-06
1.08496e-06
1.08495e-06
1.08495e-06
1.08688e-06
1.08769e-06
1.08749e-06
1.08645e-06
1.08495e-06
1.08495e-06
1.08496e-06
1.08496e-06
1.08496e-06
1.08495e-06
1.08495e-06
1.08665e-06
1.0869e-06
1.08768e-06
1.08753e-06
1.08678e-06
1.08642e-06
1.08495e-06
1.08495e-06
1.08495e-06
1.08495e-06
1.08495e-06
1.08662e-06
1.08681e-06
1.08695e-06
1.08751e-06
1.08677e-06
1.08645e-06
1.08495e-06
1.08495e-06
1.08495e-06
1.08665e-06
1.08681e-06
1.08693e-06
1.08767e-06
1.08751e-06
1.08686e-06
1.08689e-06
1.08688e-06
1.08688e-06
1.0869e-06
1.08695e-06
1.08767e-06
1.08755e-06
1.08768e-06
1.08769e-06
1.08769e-06
1.08768e-06
1.07778e-06
1.07693e-06
1.07686e-06
1.07691e-06
1.07777e-06
1.07781e-06
1.07781e-06
1.07705e-06
1.07658e-06
1.07523e-06
1.07523e-06
1.07523e-06
1.07673e-06
1.07706e-06
1.07779e-06
1.07705e-06
1.07654e-06
1.07523e-06
1.07523e-06
1.07523e-06
1.07523e-06
1.07523e-06
1.0767e-06
1.07705e-06
1.0778e-06
1.07778e-06
1.07658e-06
1.07523e-06
1.07523e-06
1.07523e-06
1.07523e-06
1.07523e-06
1.07523e-06
1.07523e-06
1.07673e-06
1.07714e-06
1.07783e-06
1.07693e-06
1.07523e-06
1.07523e-06
1.07523e-06
1.07524e-06
1.07524e-06
1.07524e-06
1.07523e-06
1.07523e-06
1.07523e-06
1.07717e-06
1.07797e-06
1.07686e-06
1.07523e-06
1.07523e-06
1.07523e-06
1.07524e-06
1.07524e-06
1.07524e-06
1.07523e-06
1.07523e-06
1.07523e-06
1.07716e-06
1.07797e-06
1.07691e-06
1.07523e-06
1.07523e-06
1.07523e-06
1.07524e-06
1.07524e-06
1.07524e-06
1.07523e-06
1.07523e-06
1.07523e-06
1.07716e-06
1.07797e-06
1.07777e-06
1.07673e-06
1.07523e-06
1.07523e-06
1.07523e-06
1.07523e-06
1.07523e-06
1.07523e-06
1.07523e-06
1.07693e-06
1.07718e-06
1.07796e-06
1.07781e-06
1.07706e-06
1.0767e-06
1.07523e-06
1.07523e-06
1.07523e-06
1.07523e-06
1.07523e-06
1.0769e-06
1.07709e-06
1.07723e-06
1.07779e-06
1.07705e-06
1.07673e-06
1.07523e-06
1.07523e-06
1.07523e-06
1.07693e-06
1.07709e-06
1.07721e-06
1.07795e-06
1.0778e-06
1.07714e-06
1.07717e-06
1.07716e-06
1.07716e-06
1.07718e-06
1.07723e-06
1.07795e-06
1.07783e-06
1.07797e-06
1.07797e-06
1.07797e-06
1.07796e-06
1.06806e-06
1.06721e-06
1.06714e-06
1.06719e-06
1.06805e-06
1.0681e-06
1.06809e-06
1.06733e-06
1.06686e-06
1.06551e-06
1.06551e-06
1.06551e-06
1.06701e-06
1.06734e-06
1.06807e-06
1.06733e-06
1.06683e-06
1.06551e-06
1.06551e-06
1.06551e-06
1.06551e-06
1.06551e-06
1.06699e-06
1.06734e-06
1.06808e-06
1.06806e-06
1.06686e-06
1.06551e-06
1.06551e-06
1.06551e-06
1.06551e-06
1.06551e-06
1.06551e-06
1.06551e-06
1.06701e-06
1.06742e-06
1.06812e-06
1.06721e-06
1.06551e-06
1.06551e-06
1.06551e-06
1.06551e-06
1.06551e-06
1.06551e-06
1.06551e-06
1.06551e-06
1.06551e-06
1.06745e-06
1.06825e-06
1.06714e-06
1.06551e-06
1.06551e-06
1.06551e-06
1.06551e-06
1.06552e-06
1.06551e-06
1.06551e-06
1.06551e-06
1.06551e-06
1.06744e-06
1.06825e-06
1.06719e-06
1.06551e-06
1.06551e-06
1.06551e-06
1.06551e-06
1.06551e-06
1.06551e-06
1.06551e-06
1.06551e-06
1.06551e-06
1.06745e-06
1.06825e-06
1.06805e-06
1.06701e-06
1.06551e-06
1.06551e-06
1.06551e-06
1.06551e-06
1.06551e-06
1.06551e-06
1.06551e-06
1.06722e-06
1.06746e-06
1.06825e-06
1.0681e-06
1.06734e-06
1.06699e-06
1.06551e-06
1.06551e-06
1.06551e-06
1.06551e-06
1.06551e-06
1.06718e-06
1.06738e-06
1.06752e-06
1.06807e-06
1.06734e-06
1.06701e-06
1.06551e-06
1.06551e-06
1.06551e-06
1.06722e-06
1.06738e-06
1.06749e-06
1.06823e-06
1.06808e-06
1.06742e-06
1.06745e-06
1.06744e-06
1.06745e-06
1.06746e-06
1.06752e-06
1.06823e-06
1.06812e-06
1.06825e-06
1.06825e-06
1.06825e-06
1.06825e-06
1.05834e-06
1.05749e-06
1.05742e-06
1.05747e-06
1.05833e-06
1.05838e-06
1.05837e-06
1.05761e-06
1.05714e-06
1.05579e-06
1.05579e-06
1.05579e-06
1.05729e-06
1.05762e-06
1.05836e-06
1.05761e-06
1.05711e-06
1.05579e-06
1.05579e-06
1.05579e-06
1.05579e-06
1.05579e-06
1.05727e-06
1.05762e-06
1.05836e-06
1.05834e-06
1.05714e-06
1.05579e-06
1.05579e-06
1.05579e-06
1.05579e-06
1.05579e-06
1.05579e-06
1.05579e-06
1.05729e-06
1.0577e-06
1.0584e-06
1.05749e-06
1.05579e-06
1.05579e-06
1.05579e-06
1.05579e-06
1.05579e-06
1.05579e-06
1.05579e-06
1.05579e-06
1.05579e-06
1.05774e-06
1.05853e-06
1.05742e-06
1.05579e-06
1.05579e-06
1.05579e-06
1.05579e-06
1.05579e-06
1.05579e-06
1.05579e-06
1.05579e-06
1.05579e-06
1.05772e-06
1.05854e-06
1.05747e-06
1.05579e-06
1.05579e-06
1.05579e-06
1.05579e-06
1.05579e-06
1.05579e-06
1.05579e-06
1.05579e-06
1.05579e-06
1.05773e-06
1.05854e-06
1.05833e-06
1.05729e-06
1.05579e-06
1.05579e-06
1.05579e-06
1.05579e-06
1.05579e-06
1.05579e-06
1.05579e-06
1.0575e-06
1.05774e-06
1.05853e-06
1.05838e-06
1.05762e-06
1.05727e-06
1.05579e-06
1.05579e-06
1.05579e-06
1.05579e-06
1.05579e-06
1.05746e-06
1.05766e-06
1.0578e-06
1.05836e-06
1.05762e-06
1.05729e-06
1.05579e-06
1.05579e-06
1.05579e-06
1.0575e-06
1.05766e-06
1.05777e-06
1.05851e-06
1.05836e-06
1.0577e-06
1.05774e-06
1.05772e-06
1.05773e-06
1.05774e-06
1.0578e-06
1.05851e-06
1.0584e-06
1.05853e-06
1.05854e-06
1.05854e-06
1.05853e-06
1.04863e-06
1.04777e-06
1.0477e-06
1.04775e-06
1.04861e-06
1.04866e-06
1.04866e-06
1.04789e-06
1.04742e-06
1.04607e-06
1.04607e-06
1.04607e-06
1.04757e-06
1.0479e-06
1.04864e-06
1.04789e-06
1.04739e-06
1.04607e-06
1.04607e-06
1.04607e-06
1.04607e-06
1.04607e-06
1.04755e-06
1.0479e-06
1.04864e-06
1.04863e-06
1.04742e-06
1.04607e-06
1.04607e-06
1.04607e-06
1.04607e-06
1.04607e-06
1.04607e-06
1.04607e-06
1.04757e-06
1.04798e-06
1.04868e-06
1.04777e-06
1.04607e-06
1.04607e-06
1.04607e-06
1.04608e-06
1.04607e-06
1.04608e-06
1.04607e-06
1.04607e-06
1.04607e-06
1.04802e-06
1.04881e-06
1.0477e-06
1.04607e-06
1.04607e-06
1.04607e-06
1.04607e-06
1.04607e-06
1.04607e-06
1.04607e-06
1.04607e-06
1.04607e-06
1.048e-06
1.04882e-06
1.04775e-06
1.04607e-06
1.04607e-06
1.04607e-06
1.04608e-06
1.04607e-06
1.04608e-06
1.04607e-06
1.04607e-06
1.04607e-06
1.04801e-06
1.04882e-06
1.04861e-06
1.04757e-06
1.04607e-06
1.04607e-06
1.04607e-06
1.04607e-06
1.04607e-06
1.04607e-06
1.04607e-06
1.04778e-06
1.04802e-06
1.04881e-06
1.04866e-06
1.0479e-06
1.04755e-06
1.04607e-06
1.04607e-06
1.04607e-06
1.04607e-06
1.04607e-06
1.04775e-06
1.04794e-06
1.04808e-06
1.04864e-06
1.0479e-06
1.04757e-06
1.04607e-06
1.04607e-06
1.04607e-06
1.04778e-06
1.04794e-06
1.04806e-06
1.04879e-06
1.04864e-06
1.04798e-06
1.04802e-06
1.048e-06
1.04801e-06
1.04802e-06
1.04808e-06
1.04879e-06
1.04868e-06
1.04881e-06
1.04882e-06
1.04882e-06
1.04881e-06
1.03891e-06
1.03805e-06
1.03799e-06
1.03803e-06
1.03889e-06
1.03894e-06
1.03894e-06
1.03817e-06
1.03771e-06
1.03635e-06
1.03635e-06
1.03635e-06
1.03785e-06
1.03818e-06
1.03892e-06
1.03818e-06
1.03767e-06
1.03635e-06
1.03636e-06
1.03636e-06
1.03636e-06
1.03635e-06
1.03783e-06
1.03818e-06
1.03892e-06
1.03891e-06
1.03771e-06
1.03635e-06
1.03636e-06
1.03636e-06
1.03636e-06
1.03636e-06
1.03636e-06
1.03635e-06
1.03785e-06
1.03826e-06
1.03896e-06
1.03805e-06
1.03635e-06
1.03636e-06
1.03636e-06
1.03636e-06
1.03636e-06
1.03636e-06
1.03636e-06
1.03636e-06
1.03635e-06
1.0383e-06
1.03909e-06
1.03799e-06
1.03635e-06
1.03636e-06
1.03636e-06
1.03636e-06
1.03636e-06
1.03636e-06
1.03636e-06
1.03636e-06
1.03635e-06
1.03828e-06
1.0391e-06
1.03803e-06
1.03635e-06
1.03636e-06
1.03636e-06
1.03636e-06
1.03636e-06
1.03636e-06
1.03636e-06
1.03636e-06
1.03635e-06
1.03829e-06
1.0391e-06
1.03889e-06
1.03785e-06
1.03635e-06
1.03636e-06
1.03636e-06
1.03636e-06
1.03636e-06
1.03636e-06
1.03635e-06
1.03806e-06
1.0383e-06
1.03909e-06
1.03894e-06
1.03818e-06
1.03783e-06
1.03635e-06
1.03636e-06
1.03636e-06
1.03636e-06
1.03635e-06
1.03803e-06
1.03822e-06
1.03836e-06
1.03892e-06
1.03818e-06
1.03785e-06
1.03635e-06
1.03635e-06
1.03635e-06
1.03806e-06
1.03822e-06
1.03834e-06
1.03908e-06
1.03892e-06
1.03826e-06
1.0383e-06
1.03828e-06
1.03829e-06
1.0383e-06
1.03836e-06
1.03908e-06
1.03896e-06
1.03909e-06
1.0391e-06
1.0391e-06
1.03909e-06
1.02919e-06
1.02833e-06
1.02827e-06
1.02832e-06
1.02918e-06
1.02922e-06
1.02922e-06
1.02846e-06
1.02799e-06
1.02664e-06
1.02664e-06
1.02664e-06
1.02813e-06
1.02846e-06
1.0292e-06
1.02846e-06
1.02795e-06
1.02664e-06
1.02664e-06
1.02664e-06
1.02664e-06
1.02664e-06
1.02811e-06
1.02846e-06
1.0292e-06
1.02919e-06
1.02799e-06
1.02664e-06
1.02664e-06
1.02664e-06
1.02664e-06
1.02664e-06
1.02664e-06
1.02664e-06
1.02814e-06
1.02855e-06
1.02924e-06
1.02833e-06
1.02664e-06
1.02664e-06
1.02664e-06
1.02664e-06
1.02664e-06
1.02664e-06
1.02664e-06
1.02664e-06
1.02664e-06
1.02858e-06
1.02937e-06
1.02827e-06
1.02664e-06
1.02664e-06
1.02664e-06
1.02664e-06
1.02664e-06
1.02664e-06
1.02664e-06
1.02664e-06
1.02664e-06
1.02857e-06
1.02938e-06
1.02832e-06
1.02664e-06
1.02664e-06
1.02664e-06
1.02664e-06
1.02664e-06
1.02664e-06
1.02664e-06
1.02664e-06
1.02664e-06
1.02857e-06
1.02938e-06
1.02918e-06
1.02813e-06
1.02664e-06
1.02664e-06
1.02664e-06
1.02664e-06
1.02664e-06
1.02664e-06
1.02664e-06
1.02834e-06
1.02859e-06
1.02937e-06
1.02922e-06
1.02846e-06
1.02811e-06
1.02664e-06
1.02664e-06
1.02664e-06
1.02664e-06
1.02664e-06
1.02831e-06
1.0285e-06
1.02864e-06
1.0292e-06
1.02846e-06
1.02814e-06
1.02664e-06
1.02664e-06
1.02664e-06
1.02834e-06
1.0285e-06
1.02862e-06
1.02936e-06
1.0292e-06
1.02855e-06
1.02858e-06
1.02857e-06
1.02857e-06
1.02859e-06
1.02864e-06
1.02936e-06
1.02924e-06
1.02937e-06
1.02938e-06
1.02938e-06
1.02937e-06
1.01947e-06
1.01862e-06
1.01855e-06
1.0186e-06
1.01946e-06
1.0195e-06
1.0195e-06
1.01874e-06
1.01827e-06
1.01692e-06
1.01692e-06
1.01692e-06
1.01842e-06
1.01875e-06
1.01948e-06
1.01874e-06
1.01823e-06
1.01692e-06
1.01692e-06
1.01692e-06
1.01692e-06
1.01692e-06
1.01839e-06
1.01874e-06
1.01949e-06
1.01947e-06
1.01827e-06
1.01692e-06
1.01692e-06
1.01692e-06
1.01692e-06
1.01692e-06
1.01692e-06
1.01692e-06
1.01842e-06
1.01883e-06
1.01952e-06
1.01862e-06
1.01692e-06
1.01692e-06
1.01692e-06
1.01692e-06
1.01692e-06
1.01692e-06
1.01692e-06
1.01692e-06
1.01692e-06
1.01886e-06
1.01965e-06
1.01855e-06
1.01692e-06
1.01692e-06
1.01692e-06
1.01692e-06
1.01692e-06
1.01692e-06
1.01692e-06
1.01692e-06
1.01692e-06
1.01885e-06
1.01966e-06
1.0186e-06
1.01692e-06
1.01692e-06
1.01692e-06
1.01692e-06
1.01692e-06
1.01692e-06
1.01692e-06
1.01692e-06
1.01692e-06
1.01885e-06
1.01966e-06
1.01946e-06
1.01842e-06
1.01692e-06
1.01692e-06
1.01692e-06
1.01692e-06
1.01692e-06
1.01692e-06
1.01692e-06
1.01862e-06
1.01887e-06
1.01965e-06
1.0195e-06
1.01875e-06
1.01839e-06
1.01692e-06
1.01692e-06
1.01692e-06
1.01692e-06
1.01692e-06
1.01859e-06
1.01878e-06
1.01892e-06
1.01948e-06
1.01874e-06
1.01842e-06
1.01692e-06
1.01692e-06
1.01692e-06
1.01862e-06
1.01878e-06
1.0189e-06
1.01964e-06
1.01949e-06
1.01883e-06
1.01886e-06
1.01885e-06
1.01885e-06
1.01887e-06
1.01892e-06
1.01964e-06
1.01952e-06
1.01965e-06
1.01966e-06
1.01966e-06
1.01965e-06
1.00975e-06
1.0089e-06
1.00883e-06
1.00888e-06
1.00974e-06
1.00979e-06
1.00978e-06
1.00902e-06
1.00855e-06
1.0072e-06
1.0072e-06
1.0072e-06
1.0087e-06
1.00903e-06
1.00976e-06
1.00902e-06
1.00851e-06
1.0072e-06
1.0072e-06
1.0072e-06
1.0072e-06
1.0072e-06
1.00867e-06
1.00902e-06
1.00977e-06
1.00975e-06
1.00855e-06
1.0072e-06
1.0072e-06
1.0072e-06
1.0072e-06
1.0072e-06
1.0072e-06
1.0072e-06
1.0087e-06
1.00911e-06
1.0098e-06
1.0089e-06
1.0072e-06
1.0072e-06
1.0072e-06
1.0072e-06
1.0072e-06
1.0072e-06
1.0072e-06
1.0072e-06
1.0072e-06
1.00914e-06
1.00994e-06
1.00883e-06
1.0072e-06
1.0072e-06
1.0072e-06
1.0072e-06
1.0072e-06
1.0072e-06
1.0072e-06
1.0072e-06
1.0072e-06
1.00913e-06
1.00994e-06
1.00888e-06
1.0072e-06
1.0072e-06
1.0072e-06
1.0072e-06
1.0072e-06
1.0072e-06
1.0072e-06
1.0072e-06
1.0072e-06
1.00913e-06
1.00994e-06
1.00974e-06
1.0087e-06
1.0072e-06
1.0072e-06
1.0072e-06
1.0072e-06
1.0072e-06
1.0072e-06
1.0072e-06
1.0089e-06
1.00915e-06
1.00993e-06
1.00979e-06
1.00903e-06
1.00867e-06
1.0072e-06
1.0072e-06
1.0072e-06
1.0072e-06
1.0072e-06
1.00887e-06
1.00906e-06
1.00921e-06
1.00976e-06
1.00902e-06
1.0087e-06
1.0072e-06
1.0072e-06
1.0072e-06
1.0089e-06
1.00906e-06
1.00918e-06
1.00992e-06
1.00977e-06
1.00911e-06
1.00914e-06
1.00913e-06
1.00913e-06
1.00915e-06
1.00921e-06
1.00992e-06
1.0098e-06
1.00994e-06
1.00994e-06
1.00994e-06
1.00993e-06
1.00003e-06
9.99179e-07
9.99111e-07
9.9916e-07
1.00002e-06
1.00007e-06
1.00006e-06
9.993e-07
9.9883e-07
9.97479e-07
9.9748e-07
9.97479e-07
9.98979e-07
9.99308e-07
1.00004e-06
9.993e-07
9.98796e-07
9.9748e-07
9.97481e-07
9.9748e-07
9.97481e-07
9.9748e-07
9.98955e-07
9.99306e-07
1.00005e-06
1.00003e-06
9.98831e-07
9.9748e-07
9.9748e-07
9.9748e-07
9.9748e-07
9.9748e-07
9.9748e-07
9.9748e-07
9.9898e-07
9.9939e-07
1.00009e-06
9.99179e-07
9.9748e-07
9.97481e-07
9.9748e-07
9.97481e-07
9.9748e-07
9.97481e-07
9.9748e-07
9.97481e-07
9.97479e-07
9.99425e-07
1.00022e-06
9.99111e-07
9.9748e-07
9.9748e-07
9.9748e-07
9.9748e-07
9.9748e-07
9.9748e-07
9.9748e-07
9.9748e-07
9.9748e-07
9.99409e-07
1.00022e-06
9.9916e-07
9.9748e-07
9.97481e-07
9.9748e-07
9.97481e-07
9.9748e-07
9.97481e-07
9.9748e-07
9.97481e-07
9.97479e-07
9.99416e-07
1.00022e-06
1.00002e-06
9.98978e-07
9.9748e-07
9.9748e-07
9.9748e-07
9.9748e-07
9.9748e-07
9.9748e-07
9.9748e-07
9.99186e-07
9.99429e-07
1.00022e-06
1.00007e-06
9.99308e-07
9.98955e-07
9.9748e-07
9.97481e-07
9.9748e-07
9.97481e-07
9.9748e-07
9.99152e-07
9.99346e-07
9.99486e-07
1.00004e-06
9.99306e-07
9.9898e-07
9.9748e-07
9.9748e-07
9.97479e-07
9.99186e-07
9.99346e-07
9.99462e-07
1.0002e-06
1.00005e-06
9.9939e-07
9.99425e-07
9.99409e-07
9.99416e-07
9.99429e-07
9.99486e-07
1.0002e-06
1.00009e-06
1.00022e-06
1.00022e-06
1.00022e-06
1.00022e-06
9.90314e-07
9.8946e-07
9.89392e-07
9.89441e-07
9.90301e-07
9.90348e-07
9.90344e-07
9.89581e-07
9.89112e-07
9.87761e-07
9.87761e-07
9.87761e-07
9.8926e-07
9.89589e-07
9.90326e-07
9.89582e-07
9.89077e-07
9.87761e-07
9.87762e-07
9.87761e-07
9.87762e-07
9.87761e-07
9.89237e-07
9.89587e-07
9.9033e-07
9.90314e-07
9.89112e-07
9.87761e-07
9.87762e-07
9.87761e-07
9.87761e-07
9.87761e-07
9.87762e-07
9.87761e-07
9.89261e-07
9.89671e-07
9.90367e-07
9.8946e-07
9.87761e-07
9.87762e-07
9.87761e-07
9.87762e-07
9.87761e-07
9.87762e-07
9.87761e-07
9.87762e-07
9.87761e-07
9.89706e-07
9.90499e-07
9.89392e-07
9.87761e-07
9.87761e-07
9.87761e-07
9.87761e-07
9.87761e-07
9.87761e-07
9.87761e-07
9.87761e-07
9.87761e-07
9.89691e-07
9.90505e-07
9.89441e-07
9.87761e-07
9.87762e-07
9.87761e-07
9.87762e-07
9.87761e-07
9.87762e-07
9.87761e-07
9.87762e-07
9.87761e-07
9.89697e-07
9.90506e-07
9.90301e-07
9.8926e-07
9.87761e-07
9.87762e-07
9.87761e-07
9.87761e-07
9.87761e-07
9.87762e-07
9.87761e-07
9.89467e-07
9.89711e-07
9.90497e-07
9.90348e-07
9.89589e-07
9.89237e-07
9.87761e-07
9.87762e-07
9.87761e-07
9.87762e-07
9.87761e-07
9.89433e-07
9.89627e-07
9.89768e-07
9.90326e-07
9.89587e-07
9.89261e-07
9.87761e-07
9.87761e-07
9.87761e-07
9.89467e-07
9.89627e-07
9.89743e-07
9.90482e-07
9.9033e-07
9.89671e-07
9.89706e-07
9.8969e-07
9.89697e-07
9.8971e-07
9.89768e-07
9.90482e-07
9.90367e-07
9.90499e-07
9.90505e-07
9.90506e-07
9.90497e-07
9.80596e-07
9.79741e-07
9.79674e-07
9.79722e-07
9.80582e-07
9.80629e-07
9.80625e-07
9.79863e-07
9.79393e-07
9.78042e-07
9.78043e-07
9.78042e-07
9.79541e-07
9.79871e-07
9.80607e-07
9.79863e-07
9.79358e-07
9.78042e-07
9.78044e-07
9.78043e-07
9.78044e-07
9.78042e-07
9.79518e-07
9.79868e-07
9.80611e-07
9.80596e-07
9.79393e-07
9.78042e-07
9.78043e-07
9.78042e-07
9.78043e-07
9.78042e-07
9.78043e-07
9.78042e-07
9.79542e-07
9.79953e-07
9.80649e-07
9.79741e-07
9.78042e-07
9.78044e-07
9.78042e-07
9.78043e-07
9.78043e-07
9.78043e-07
9.78042e-07
9.78044e-07
9.78042e-07
9.79987e-07
9.8078e-07
9.79673e-07
9.78043e-07
9.78043e-07
9.78043e-07
9.78043e-07
9.78043e-07
9.78043e-07
9.78043e-07
9.78043e-07
9.78043e-07
9.79972e-07
9.80786e-07
9.79722e-07
9.78042e-07
9.78044e-07
9.78042e-07
9.78043e-07
9.78043e-07
9.78043e-07
9.78042e-07
9.78044e-07
9.78042e-07
9.79978e-07
9.80787e-07
9.80582e-07
9.79541e-07
9.78042e-07
9.78043e-07
9.78042e-07
9.78043e-07
9.78042e-07
9.78043e-07
9.78042e-07
9.79749e-07
9.79992e-07
9.80779e-07
9.80629e-07
9.79871e-07
9.79518e-07
9.78042e-07
9.78044e-07
9.78043e-07
9.78044e-07
9.78042e-07
9.79715e-07
9.79908e-07
9.80049e-07
9.80607e-07
9.79868e-07
9.79542e-07
9.78042e-07
9.78043e-07
9.78042e-07
9.79749e-07
9.79908e-07
9.80024e-07
9.80764e-07
9.80611e-07
9.79953e-07
9.79987e-07
9.79972e-07
9.79978e-07
9.79992e-07
9.80049e-07
9.80763e-07
9.80649e-07
9.8078e-07
9.80786e-07
9.80787e-07
9.80779e-07
9.70877e-07
9.70023e-07
9.69955e-07
9.70004e-07
9.70864e-07
9.7091e-07
9.70906e-07
9.70144e-07
9.69674e-07
9.68323e-07
9.68324e-07
9.68323e-07
9.69822e-07
9.70152e-07
9.70889e-07
9.70144e-07
9.6964e-07
9.68324e-07
9.68325e-07
9.68324e-07
9.68325e-07
9.68324e-07
9.69799e-07
9.70149e-07
9.70892e-07
9.70877e-07
9.69674e-07
9.68324e-07
9.68324e-07
9.68324e-07
9.68324e-07
9.68324e-07
9.68324e-07
9.68324e-07
9.69824e-07
9.70234e-07
9.7093e-07
9.70023e-07
9.68323e-07
9.68325e-07
9.68324e-07
9.68325e-07
9.68324e-07
9.68325e-07
9.68324e-07
9.68325e-07
9.68323e-07
9.70269e-07
9.71061e-07
9.69955e-07
9.68324e-07
9.68324e-07
9.68324e-07
9.68324e-07
9.68324e-07
9.68324e-07
9.68324e-07
9.68324e-07
9.68324e-07
9.70253e-07
9.71068e-07
9.70004e-07
9.68323e-07
9.68325e-07
9.68324e-07
9.68325e-07
9.68324e-07
9.68325e-07
9.68324e-07
9.68325e-07
9.68323e-07
9.7026e-07
9.71069e-07
9.70864e-07
9.69822e-07
9.68324e-07
9.68324e-07
9.68324e-07
9.68324e-07
9.68324e-07
9.68324e-07
9.68324e-07
9.7003e-07
9.70273e-07
9.7106e-07
9.7091e-07
9.70152e-07
9.69799e-07
9.68324e-07
9.68325e-07
9.68324e-07
9.68325e-07
9.68324e-07
9.69996e-07
9.7019e-07
9.7033e-07
9.70889e-07
9.70149e-07
9.69824e-07
9.68323e-07
9.68324e-07
9.68323e-07
9.7003e-07
9.7019e-07
9.70306e-07
9.71045e-07
9.70892e-07
9.70234e-07
9.70269e-07
9.70253e-07
9.7026e-07
9.70273e-07
9.7033e-07
9.71045e-07
9.7093e-07
9.71061e-07
9.71068e-07
9.71069e-07
9.7106e-07
9.61159e-07
9.60304e-07
9.60236e-07
9.60285e-07
9.61145e-07
9.61192e-07
9.61188e-07
9.60426e-07
9.59956e-07
9.58605e-07
9.58605e-07
9.58605e-07
9.60104e-07
9.60433e-07
9.6117e-07
9.60426e-07
9.59921e-07
9.58605e-07
9.58606e-07
9.58606e-07
9.58606e-07
9.58605e-07
9.60081e-07
9.60431e-07
9.61174e-07
9.61158e-07
9.59956e-07
9.58605e-07
9.58606e-07
9.58605e-07
9.58606e-07
9.58605e-07
9.58606e-07
9.58605e-07
9.60105e-07
9.60515e-07
9.61211e-07
9.60304e-07
9.58605e-07
9.58606e-07
9.58605e-07
9.58606e-07
9.58605e-07
9.58606e-07
9.58605e-07
9.58606e-07
9.58605e-07
9.6055e-07
9.61343e-07
9.60236e-07
9.58605e-07
9.58606e-07
9.58606e-07
9.58605e-07
9.58606e-07
9.58605e-07
9.58606e-07
9.58606e-07
9.58605e-07
9.60535e-07
9.61349e-07
9.60285e-07
9.58605e-07
9.58606e-07
9.58605e-07
9.58606e-07
9.58605e-07
9.58606e-07
9.58605e-07
9.58606e-07
9.58605e-07
9.60541e-07