/*--------------------------------*- C++ -*----------------------------------*\
| =========                 |                                                 |
| \\      /  F ield         | OpenFOAM: The Open Source CFD Toolbox           |
|  \\    /   O peration     | Version:  v2012                                 |
|   \\  /    A nd           | Website:  www.openfoam.com                      |
|    \\/     M anipulation  |                                                 |
\*---------------------------------------------------------------------------*/
FoamFile
{
    version     2.0;
    format      ascii;
    class       volScalarField;
    location    "54";
    object      p;
}
// * * * * * * * * * * * * * * * * * * * * * * * * * * * * * * * * * * * * * //

dimensions      [0 2 -2 0 0 0 0];


internalField   nonuniform List<scalar> 
292667
(
1.16407e-06
1.15477e-06
1.15403e-06
1.1541e-06
1.15511e-06
1.16497e-06
1.15498e-06
1.15242e-06
1.15092e-06
1.15031e-06
1.15039e-06
1.15119e-06
1.15291e-06
1.15571e-06
1.15498e-06
1.15167e-06
1.14961e-06
1.14846e-06
1.14798e-06
1.14805e-06
1.14867e-06
1.15e-06
1.15233e-06
1.15591e-06
1.16407e-06
1.15242e-06
1.14961e-06
1.14793e-06
1.14699e-06
1.14659e-06
1.14664e-06
1.14716e-06
1.14825e-06
1.15016e-06
1.15331e-06
1.16366e-06
1.15477e-06
1.15092e-06
1.14846e-06
1.14699e-06
1.14616e-06
1.14579e-06
1.14584e-06
1.14631e-06
1.14728e-06
1.14896e-06
1.15174e-06
1.15833e-06
1.15403e-06
1.15031e-06
1.14798e-06
1.14659e-06
1.14579e-06
1.14545e-06
1.1455e-06
1.14595e-06
1.14687e-06
1.14846e-06
1.1511e-06
1.15672e-06
1.1541e-06
1.15039e-06
1.14805e-06
1.14664e-06
1.14584e-06
1.1455e-06
1.14554e-06
1.146e-06
1.14693e-06
1.14853e-06
1.15119e-06
1.15703e-06
1.15511e-06
1.15119e-06
1.14867e-06
1.14716e-06
1.14631e-06
1.14595e-06
1.146e-06
1.14648e-06
1.14747e-06
1.14919e-06
1.15205e-06
1.15864e-06
1.16497e-06
1.15291e-06
1.15e-06
1.14825e-06
1.14728e-06
1.14687e-06
1.14693e-06
1.14747e-06
1.14861e-06
1.1506e-06
1.15386e-06
1.16356e-06
1.15571e-06
1.15233e-06
1.15016e-06
1.14896e-06
1.14846e-06
1.14853e-06
1.14919e-06
1.1506e-06
1.15306e-06
1.15929e-06
1.15591e-06
1.15331e-06
1.15174e-06
1.1511e-06
1.15119e-06
1.15205e-06
1.15386e-06
1.15929e-06
1.16366e-06
1.15833e-06
1.15672e-06
1.15703e-06
1.15864e-06
1.16356e-06
1.13819e-06
1.13738e-06
1.13735e-06
1.13739e-06
1.13818e-06
1.13807e-06
1.13823e-06
1.1376e-06
1.13723e-06
1.13589e-06
1.13587e-06
1.13589e-06
1.13739e-06
1.13764e-06
1.13826e-06
1.1376e-06
1.13722e-06
1.13594e-06
1.13588e-06
1.13593e-06
1.13588e-06
1.13594e-06
1.13737e-06
1.13763e-06
1.13823e-06
1.13819e-06
1.13723e-06
1.13594e-06
1.13588e-06
1.13591e-06
1.1359e-06
1.13591e-06
1.13588e-06
1.13594e-06
1.13736e-06
1.13764e-06
1.13828e-06
1.13738e-06
1.13589e-06
1.13588e-06
1.13591e-06
1.13587e-06
1.13587e-06
1.13587e-06
1.13591e-06
1.13588e-06
1.13589e-06
1.13779e-06
1.13843e-06
1.13735e-06
1.13587e-06
1.13593e-06
1.1359e-06
1.13587e-06
1.13587e-06
1.13587e-06
1.1359e-06
1.13593e-06
1.13587e-06
1.13781e-06
1.13834e-06
1.13739e-06
1.13589e-06
1.13588e-06
1.13591e-06
1.13587e-06
1.13587e-06
1.13587e-06
1.13591e-06
1.13588e-06
1.13589e-06
1.13781e-06
1.13836e-06
1.13818e-06
1.13739e-06
1.13594e-06
1.13588e-06
1.13591e-06
1.1359e-06
1.13591e-06
1.13588e-06
1.13594e-06
1.13755e-06
1.13771e-06
1.13838e-06
1.13807e-06
1.13764e-06
1.13737e-06
1.13594e-06
1.13588e-06
1.13593e-06
1.13588e-06
1.13594e-06
1.13751e-06
1.13768e-06
1.13769e-06
1.13826e-06
1.13763e-06
1.13736e-06
1.13589e-06
1.13587e-06
1.13589e-06
1.13755e-06
1.13768e-06
1.13774e-06
1.13836e-06
1.13823e-06
1.13764e-06
1.13779e-06
1.13781e-06
1.13781e-06
1.13771e-06
1.13769e-06
1.13836e-06
1.13828e-06
1.13843e-06
1.13834e-06
1.13836e-06
1.13838e-06
1.1285e-06
1.12768e-06
1.12761e-06
1.12766e-06
1.12849e-06
1.12853e-06
1.12853e-06
1.1278e-06
1.12737e-06
1.12607e-06
1.12607e-06
1.12607e-06
1.12753e-06
1.12783e-06
1.12851e-06
1.1278e-06
1.12736e-06
1.12612e-06
1.12612e-06
1.12616e-06
1.12612e-06
1.12612e-06
1.12753e-06
1.12783e-06
1.12852e-06
1.1285e-06
1.12737e-06
1.12612e-06
1.12613e-06
1.12618e-06
1.12618e-06
1.12618e-06
1.12613e-06
1.12612e-06
1.12754e-06
1.12789e-06
1.12855e-06
1.12768e-06
1.12607e-06
1.12612e-06
1.12618e-06
1.12619e-06
1.12621e-06
1.12619e-06
1.12619e-06
1.12612e-06
1.12607e-06
1.12794e-06
1.12869e-06
1.12761e-06
1.12607e-06
1.12616e-06
1.12618e-06
1.12621e-06
1.12622e-06
1.12621e-06
1.12618e-06
1.12616e-06
1.12607e-06
1.12794e-06
1.1287e-06
1.12766e-06
1.12607e-06
1.12612e-06
1.12618e-06
1.12619e-06
1.12621e-06
1.12619e-06
1.12618e-06
1.12612e-06
1.12607e-06
1.12794e-06
1.1287e-06
1.12849e-06
1.12753e-06
1.12612e-06
1.12613e-06
1.12619e-06
1.12618e-06
1.12619e-06
1.12613e-06
1.12612e-06
1.12773e-06
1.12793e-06
1.12869e-06
1.12853e-06
1.12783e-06
1.12753e-06
1.12612e-06
1.12612e-06
1.12616e-06
1.12612e-06
1.12612e-06
1.12771e-06
1.12787e-06
1.12796e-06
1.12852e-06
1.12783e-06
1.12754e-06
1.12607e-06
1.12607e-06
1.12607e-06
1.12773e-06
1.12787e-06
1.12795e-06
1.12867e-06
1.12852e-06
1.12789e-06
1.12794e-06
1.12794e-06
1.12794e-06
1.12793e-06
1.12796e-06
1.12867e-06
1.12855e-06
1.12869e-06
1.1287e-06
1.1287e-06
1.12869e-06
1.11886e-06
1.11802e-06
1.11795e-06
1.118e-06
1.11885e-06
1.11889e-06
1.11888e-06
1.11814e-06
1.11769e-06
1.11637e-06
1.11637e-06
1.11637e-06
1.11784e-06
1.11815e-06
1.11887e-06
1.11814e-06
1.11766e-06
1.11639e-06
1.11641e-06
1.11643e-06
1.11641e-06
1.11639e-06
1.11782e-06
1.11815e-06
1.11887e-06
1.11886e-06
1.11769e-06
1.11639e-06
1.11642e-06
1.11645e-06
1.11645e-06
1.11645e-06
1.11642e-06
1.11639e-06
1.11784e-06
1.11823e-06
1.11891e-06
1.11802e-06
1.11637e-06
1.11641e-06
1.11645e-06
1.11647e-06
1.11648e-06
1.11647e-06
1.11645e-06
1.11641e-06
1.11637e-06
1.11827e-06
1.11904e-06
1.11795e-06
1.11637e-06
1.11643e-06
1.11645e-06
1.11648e-06
1.11649e-06
1.11648e-06
1.11645e-06
1.11643e-06
1.11637e-06
1.11826e-06
1.11905e-06
1.118e-06
1.11637e-06
1.11641e-06
1.11645e-06
1.11647e-06
1.11648e-06
1.11647e-06
1.11645e-06
1.11641e-06
1.11637e-06
1.11826e-06
1.11905e-06
1.11885e-06
1.11784e-06
1.11639e-06
1.11642e-06
1.11645e-06
1.11645e-06
1.11645e-06
1.11642e-06
1.11639e-06
1.11805e-06
1.11827e-06
1.11904e-06
1.11889e-06
1.11815e-06
1.11782e-06
1.11639e-06
1.11641e-06
1.11643e-06
1.11641e-06
1.11639e-06
1.11802e-06
1.11819e-06
1.11832e-06
1.11887e-06
1.11815e-06
1.11784e-06
1.11637e-06
1.11637e-06
1.11637e-06
1.11804e-06
1.11819e-06
1.11829e-06
1.11902e-06
1.11887e-06
1.11823e-06
1.11827e-06
1.11826e-06
1.11826e-06
1.11827e-06
1.11832e-06
1.11902e-06
1.11891e-06
1.11904e-06
1.11905e-06
1.11905e-06
1.11904e-06
1.10921e-06
1.10836e-06
1.1083e-06
1.10835e-06
1.1092e-06
1.10924e-06
1.10923e-06
1.10848e-06
1.10802e-06
1.1067e-06
1.1067e-06
1.1067e-06
1.10817e-06
1.10849e-06
1.10922e-06
1.10848e-06
1.10799e-06
1.10671e-06
1.10672e-06
1.10673e-06
1.10672e-06
1.10671e-06
1.10815e-06
1.10849e-06
1.10922e-06
1.10921e-06
1.10802e-06
1.10671e-06
1.10673e-06
1.10675e-06
1.10675e-06
1.10675e-06
1.10673e-06
1.10671e-06
1.10817e-06
1.10857e-06
1.10926e-06
1.10836e-06
1.1067e-06
1.10672e-06
1.10675e-06
1.10676e-06
1.10677e-06
1.10676e-06
1.10675e-06
1.10672e-06
1.1067e-06
1.10861e-06
1.10939e-06
1.1083e-06
1.1067e-06
1.10673e-06
1.10675e-06
1.10677e-06
1.10677e-06
1.10677e-06
1.10675e-06
1.10673e-06
1.1067e-06
1.1086e-06
1.1094e-06
1.10835e-06
1.1067e-06
1.10672e-06
1.10675e-06
1.10676e-06
1.10677e-06
1.10676e-06
1.10675e-06
1.10672e-06
1.1067e-06
1.10861e-06
1.1094e-06
1.1092e-06
1.10817e-06
1.10671e-06
1.10673e-06
1.10675e-06
1.10675e-06
1.10675e-06
1.10673e-06
1.10671e-06
1.10838e-06
1.10861e-06
1.10939e-06
1.10924e-06
1.10849e-06
1.10815e-06
1.10671e-06
1.10672e-06
1.10673e-06
1.10672e-06
1.10671e-06
1.10835e-06
1.10853e-06
1.10867e-06
1.10922e-06
1.10849e-06
1.10817e-06
1.1067e-06
1.1067e-06
1.1067e-06
1.10838e-06
1.10853e-06
1.10864e-06
1.10937e-06
1.10922e-06
1.10857e-06
1.10861e-06
1.1086e-06
1.10861e-06
1.10861e-06
1.10867e-06
1.10937e-06
1.10926e-06
1.10939e-06
1.1094e-06
1.1094e-06
1.10939e-06
1.09956e-06
1.09871e-06
1.09864e-06
1.09869e-06
1.09954e-06
1.09959e-06
1.09958e-06
1.09883e-06
1.09837e-06
1.09704e-06
1.09704e-06
1.09704e-06
1.09852e-06
1.09884e-06
1.09957e-06
1.09883e-06
1.09833e-06
1.09704e-06
1.09705e-06
1.09705e-06
1.09705e-06
1.09704e-06
1.09849e-06
1.09884e-06
1.09957e-06
1.09955e-06
1.09837e-06
1.09704e-06
1.09705e-06
1.09706e-06
1.09707e-06
1.09706e-06
1.09705e-06
1.09704e-06
1.09852e-06
1.09892e-06
1.09961e-06
1.09871e-06
1.09704e-06
1.09705e-06
1.09706e-06
1.09707e-06
1.09708e-06
1.09707e-06
1.09706e-06
1.09705e-06
1.09704e-06
1.09896e-06
1.09974e-06
1.09864e-06
1.09704e-06
1.09705e-06
1.09707e-06
1.09708e-06
1.09708e-06
1.09708e-06
1.09707e-06
1.09705e-06
1.09704e-06
1.09895e-06
1.09975e-06
1.09869e-06
1.09704e-06
1.09705e-06
1.09706e-06
1.09707e-06
1.09708e-06
1.09707e-06
1.09706e-06
1.09705e-06
1.09704e-06
1.09895e-06
1.09975e-06
1.09954e-06
1.09852e-06
1.09704e-06
1.09705e-06
1.09706e-06
1.09707e-06
1.09706e-06
1.09705e-06
1.09704e-06
1.09872e-06
1.09896e-06
1.09974e-06
1.09959e-06
1.09884e-06
1.09849e-06
1.09704e-06
1.09705e-06
1.09705e-06
1.09705e-06
1.09704e-06
1.09869e-06
1.09888e-06
1.09902e-06
1.09957e-06
1.09884e-06
1.09852e-06
1.09704e-06
1.09704e-06
1.09704e-06
1.09872e-06
1.09888e-06
1.09899e-06
1.09972e-06
1.09957e-06
1.09892e-06
1.09896e-06
1.09895e-06
1.09895e-06
1.09896e-06
1.09902e-06
1.09972e-06
1.09961e-06
1.09974e-06
1.09975e-06
1.09975e-06
1.09974e-06
1.0899e-06
1.08906e-06
1.08899e-06
1.08904e-06
1.08989e-06
1.08994e-06
1.08993e-06
1.08918e-06
1.08871e-06
1.08738e-06
1.08738e-06
1.08738e-06
1.08886e-06
1.08919e-06
1.08991e-06
1.08918e-06
1.08868e-06
1.08738e-06
1.08739e-06
1.08739e-06
1.08739e-06
1.08738e-06
1.08884e-06
1.08918e-06
1.08992e-06
1.0899e-06
1.08871e-06
1.08738e-06
1.08739e-06
1.08739e-06
1.0874e-06
1.08739e-06
1.08739e-06
1.08738e-06
1.08886e-06
1.08927e-06
1.08995e-06
1.08906e-06
1.08738e-06
1.08739e-06
1.08739e-06
1.0874e-06
1.0874e-06
1.0874e-06
1.08739e-06
1.08739e-06
1.08738e-06
1.0893e-06
1.09009e-06
1.08899e-06
1.08738e-06
1.08739e-06
1.0874e-06
1.0874e-06
1.0874e-06
1.0874e-06
1.0874e-06
1.08739e-06
1.08738e-06
1.08929e-06
1.09009e-06
1.08904e-06
1.08738e-06
1.08739e-06
1.08739e-06
1.0874e-06
1.0874e-06
1.0874e-06
1.08739e-06
1.08739e-06
1.08738e-06
1.0893e-06
1.0901e-06
1.08989e-06
1.08886e-06
1.08738e-06
1.08739e-06
1.08739e-06
1.0874e-06
1.08739e-06
1.08739e-06
1.08738e-06
1.08907e-06
1.08931e-06
1.09009e-06
1.08994e-06
1.08919e-06
1.08884e-06
1.08738e-06
1.08739e-06
1.08739e-06
1.08739e-06
1.08738e-06
1.08904e-06
1.08923e-06
1.08936e-06
1.08991e-06
1.08918e-06
1.08886e-06
1.08738e-06
1.08738e-06
1.08738e-06
1.08907e-06
1.08923e-06
1.08934e-06
1.09007e-06
1.08992e-06
1.08927e-06
1.0893e-06
1.08929e-06
1.0893e-06
1.08931e-06
1.08936e-06
1.09007e-06
1.08995e-06
1.09009e-06
1.09009e-06
1.0901e-06
1.09009e-06
1.08025e-06
1.0794e-06
1.07934e-06
1.07939e-06
1.08024e-06
1.08028e-06
1.08028e-06
1.07952e-06
1.07906e-06
1.07772e-06
1.07772e-06
1.07772e-06
1.07921e-06
1.07953e-06
1.08026e-06
1.07952e-06
1.07902e-06
1.07772e-06
1.07773e-06
1.07773e-06
1.07773e-06
1.07772e-06
1.07918e-06
1.07953e-06
1.08026e-06
1.08025e-06
1.07906e-06
1.07772e-06
1.07773e-06
1.07773e-06
1.07773e-06
1.07773e-06
1.07773e-06
1.07772e-06
1.07921e-06
1.07961e-06
1.0803e-06
1.0794e-06
1.07772e-06
1.07773e-06
1.07773e-06
1.07774e-06
1.07774e-06
1.07774e-06
1.07773e-06
1.07773e-06
1.07772e-06
1.07965e-06
1.08043e-06
1.07934e-06
1.07772e-06
1.07773e-06
1.07773e-06
1.07774e-06
1.07774e-06
1.07774e-06
1.07773e-06
1.07773e-06
1.07772e-06
1.07964e-06
1.08044e-06
1.07939e-06
1.07772e-06
1.07773e-06
1.07773e-06
1.07774e-06
1.07774e-06
1.07774e-06
1.07773e-06
1.07773e-06
1.07772e-06
1.07964e-06
1.08044e-06
1.08024e-06
1.07921e-06
1.07772e-06
1.07773e-06
1.07773e-06
1.07773e-06
1.07773e-06
1.07773e-06
1.07772e-06
1.07941e-06
1.07965e-06
1.08043e-06
1.08028e-06
1.07953e-06
1.07918e-06
1.07772e-06
1.07773e-06
1.07773e-06
1.07773e-06
1.07772e-06
1.07938e-06
1.07957e-06
1.07971e-06
1.08026e-06
1.07953e-06
1.07921e-06
1.07772e-06
1.07772e-06
1.07772e-06
1.07941e-06
1.07957e-06
1.07969e-06
1.08042e-06
1.08026e-06
1.07961e-06
1.07965e-06
1.07964e-06
1.07964e-06
1.07965e-06
1.07971e-06
1.08042e-06
1.0803e-06
1.08043e-06
1.08044e-06
1.08044e-06
1.08043e-06
1.0706e-06
1.06975e-06
1.06968e-06
1.06973e-06
1.07058e-06
1.07063e-06
1.07062e-06
1.06987e-06
1.0694e-06
1.06807e-06
1.06807e-06
1.06807e-06
1.06955e-06
1.06988e-06
1.07061e-06
1.06987e-06
1.06937e-06
1.06807e-06
1.06807e-06
1.06807e-06
1.06807e-06
1.06807e-06
1.06953e-06
1.06988e-06
1.07061e-06
1.0706e-06
1.0694e-06
1.06807e-06
1.06807e-06
1.06807e-06
1.06807e-06
1.06807e-06
1.06807e-06
1.06807e-06
1.06955e-06
1.06996e-06
1.07065e-06
1.06975e-06
1.06807e-06
1.06807e-06
1.06807e-06
1.06808e-06
1.06808e-06
1.06808e-06
1.06807e-06
1.06807e-06
1.06807e-06
1.07e-06
1.07078e-06
1.06968e-06
1.06807e-06
1.06807e-06
1.06807e-06
1.06808e-06
1.06808e-06
1.06808e-06
1.06807e-06
1.06807e-06
1.06807e-06
1.06998e-06
1.07079e-06
1.06973e-06
1.06807e-06
1.06807e-06
1.06807e-06
1.06808e-06
1.06808e-06
1.06808e-06
1.06807e-06
1.06807e-06
1.06807e-06
1.06999e-06
1.07079e-06
1.07058e-06
1.06955e-06
1.06807e-06
1.06807e-06
1.06807e-06
1.06807e-06
1.06807e-06
1.06807e-06
1.06807e-06
1.06976e-06
1.07e-06
1.07078e-06
1.07063e-06
1.06988e-06
1.06953e-06
1.06807e-06
1.06807e-06
1.06807e-06
1.06807e-06
1.06807e-06
1.06973e-06
1.06992e-06
1.07006e-06
1.07061e-06
1.06988e-06
1.06955e-06
1.06807e-06
1.06807e-06
1.06807e-06
1.06976e-06
1.06992e-06
1.07003e-06
1.07076e-06
1.07061e-06
1.06996e-06
1.07e-06
1.06998e-06
1.06999e-06
1.07e-06
1.07006e-06
1.07076e-06
1.07065e-06
1.07078e-06
1.07079e-06
1.07079e-06
1.07078e-06
1.06094e-06
1.0601e-06
1.06003e-06
1.06008e-06
1.06093e-06
1.06097e-06
1.06097e-06
1.06022e-06
1.05975e-06
1.05841e-06
1.05841e-06
1.05841e-06
1.0599e-06
1.06022e-06
1.06095e-06
1.06022e-06
1.05971e-06
1.05841e-06
1.05842e-06
1.05842e-06
1.05842e-06
1.05841e-06
1.05987e-06
1.06022e-06
1.06096e-06
1.06094e-06
1.05975e-06
1.05841e-06
1.05842e-06
1.05842e-06
1.05842e-06
1.05842e-06
1.05842e-06
1.05841e-06
1.0599e-06
1.06031e-06
1.06099e-06
1.0601e-06
1.05841e-06
1.05842e-06
1.05842e-06
1.05842e-06
1.05842e-06
1.05842e-06
1.05842e-06
1.05842e-06
1.05841e-06
1.06034e-06
1.06113e-06
1.06003e-06
1.05841e-06
1.05842e-06
1.05842e-06
1.05842e-06
1.05842e-06
1.05842e-06
1.05842e-06
1.05842e-06
1.05841e-06
1.06033e-06
1.06113e-06
1.06008e-06
1.05841e-06
1.05842e-06
1.05842e-06
1.05842e-06
1.05842e-06
1.05842e-06
1.05842e-06
1.05842e-06
1.05841e-06
1.06033e-06
1.06113e-06
1.06093e-06
1.0599e-06
1.05841e-06
1.05842e-06
1.05842e-06
1.05842e-06
1.05842e-06
1.05842e-06
1.05841e-06
1.06011e-06
1.06035e-06
1.06112e-06
1.06097e-06
1.06022e-06
1.05987e-06
1.05841e-06
1.05842e-06
1.05842e-06
1.05842e-06
1.05841e-06
1.06007e-06
1.06026e-06
1.0604e-06
1.06095e-06
1.06022e-06
1.0599e-06
1.05841e-06
1.05841e-06
1.05841e-06
1.06011e-06
1.06026e-06
1.06038e-06
1.06111e-06
1.06096e-06
1.06031e-06
1.06034e-06
1.06033e-06
1.06033e-06
1.06035e-06
1.0604e-06
1.06111e-06
1.06099e-06
1.06113e-06
1.06113e-06
1.06113e-06
1.06112e-06
1.05129e-06
1.05044e-06
1.05037e-06
1.05042e-06
1.05128e-06
1.05132e-06
1.05132e-06
1.05056e-06
1.0501e-06
1.04876e-06
1.04876e-06
1.04876e-06
1.05024e-06
1.05057e-06
1.0513e-06
1.05056e-06
1.05006e-06
1.04876e-06
1.04876e-06
1.04876e-06
1.04876e-06
1.04876e-06
1.05022e-06
1.05057e-06
1.0513e-06
1.05129e-06
1.0501e-06
1.04876e-06
1.04876e-06
1.04876e-06
1.04876e-06
1.04876e-06
1.04876e-06
1.04876e-06
1.05025e-06
1.05065e-06
1.05134e-06
1.05044e-06
1.04876e-06
1.04876e-06
1.04876e-06
1.04876e-06
1.04876e-06
1.04876e-06
1.04876e-06
1.04876e-06
1.04876e-06
1.05069e-06
1.05147e-06
1.05037e-06
1.04876e-06
1.04876e-06
1.04876e-06
1.04876e-06
1.04876e-06
1.04876e-06
1.04876e-06
1.04876e-06
1.04876e-06
1.05067e-06
1.05148e-06
1.05042e-06
1.04876e-06
1.04876e-06
1.04876e-06
1.04876e-06
1.04876e-06
1.04876e-06
1.04876e-06
1.04876e-06
1.04876e-06
1.05068e-06
1.05148e-06
1.05128e-06
1.05024e-06
1.04876e-06
1.04876e-06
1.04876e-06
1.04876e-06
1.04876e-06
1.04876e-06
1.04876e-06
1.05045e-06
1.05069e-06
1.05147e-06
1.05132e-06
1.05057e-06
1.05022e-06
1.04876e-06
1.04876e-06
1.04876e-06
1.04876e-06
1.04876e-06
1.05042e-06
1.05061e-06
1.05075e-06
1.0513e-06
1.05057e-06
1.05025e-06
1.04876e-06
1.04876e-06
1.04876e-06
1.05045e-06
1.05061e-06
1.05072e-06
1.05145e-06
1.0513e-06
1.05065e-06
1.05069e-06
1.05067e-06
1.05068e-06
1.05069e-06
1.05075e-06
1.05145e-06
1.05134e-06
1.05147e-06
1.05148e-06
1.05148e-06
1.05147e-06
1.04163e-06
1.04079e-06
1.04072e-06
1.04077e-06
1.04162e-06
1.04167e-06
1.04166e-06
1.04091e-06
1.04044e-06
1.03911e-06
1.03911e-06
1.03911e-06
1.04059e-06
1.04092e-06
1.04165e-06
1.04091e-06
1.04041e-06
1.03911e-06
1.03911e-06
1.03911e-06
1.03911e-06
1.03911e-06
1.04057e-06
1.04091e-06
1.04165e-06
1.04163e-06
1.04044e-06
1.03911e-06
1.03911e-06
1.03911e-06
1.03911e-06
1.03911e-06
1.03911e-06
1.03911e-06
1.04059e-06
1.041e-06
1.04169e-06
1.04079e-06
1.03911e-06
1.03911e-06
1.03911e-06
1.03911e-06
1.03911e-06
1.03911e-06
1.03911e-06
1.03911e-06
1.03911e-06
1.04104e-06
1.04182e-06
1.04072e-06
1.03911e-06
1.03911e-06
1.03911e-06
1.03911e-06
1.03911e-06
1.03911e-06
1.03911e-06
1.03911e-06
1.03911e-06
1.04102e-06
1.04183e-06
1.04077e-06
1.03911e-06
1.03911e-06
1.03911e-06
1.03911e-06
1.03911e-06
1.03911e-06
1.03911e-06
1.03911e-06
1.03911e-06
1.04103e-06
1.04183e-06
1.04162e-06
1.04059e-06
1.03911e-06
1.03911e-06
1.03911e-06
1.03911e-06
1.03911e-06
1.03911e-06
1.03911e-06
1.0408e-06
1.04104e-06
1.04182e-06
1.04167e-06
1.04092e-06
1.04057e-06
1.03911e-06
1.03911e-06
1.03911e-06
1.03911e-06
1.03911e-06
1.04076e-06
1.04096e-06
1.0411e-06
1.04165e-06
1.04091e-06
1.04059e-06
1.03911e-06
1.03911e-06
1.03911e-06
1.0408e-06
1.04096e-06
1.04107e-06
1.0418e-06
1.04165e-06
1.041e-06
1.04104e-06
1.04102e-06
1.04103e-06
1.04104e-06
1.0411e-06
1.0418e-06
1.04169e-06
1.04182e-06
1.04183e-06
1.04183e-06
1.04182e-06
1.03198e-06
1.03113e-06
1.03107e-06
1.03112e-06
1.03197e-06
1.03201e-06
1.03201e-06
1.03125e-06
1.03079e-06
1.02945e-06
1.02945e-06
1.02945e-06
1.03094e-06
1.03126e-06
1.03199e-06
1.03125e-06
1.03075e-06
1.02945e-06
1.02945e-06
1.02945e-06
1.02945e-06
1.02945e-06
1.03091e-06
1.03126e-06
1.032e-06
1.03198e-06
1.03079e-06
1.02945e-06
1.02945e-06
1.02945e-06
1.02945e-06
1.02945e-06
1.02945e-06
1.02945e-06
1.03094e-06
1.03134e-06
1.03203e-06
1.03113e-06
1.02945e-06
1.02945e-06
1.02945e-06
1.02945e-06
1.02945e-06
1.02945e-06
1.02945e-06
1.02945e-06
1.02945e-06
1.03138e-06
1.03216e-06
1.03107e-06
1.02945e-06
1.02945e-06
1.02945e-06
1.02945e-06
1.02945e-06
1.02945e-06
1.02945e-06
1.02945e-06
1.02945e-06
1.03137e-06
1.03217e-06
1.03112e-06
1.02945e-06
1.02945e-06
1.02945e-06
1.02945e-06
1.02945e-06
1.02945e-06
1.02945e-06
1.02945e-06
1.02945e-06
1.03137e-06
1.03217e-06
1.03197e-06
1.03094e-06
1.02945e-06
1.02945e-06
1.02945e-06
1.02945e-06
1.02945e-06
1.02945e-06
1.02945e-06
1.03114e-06
1.03138e-06
1.03216e-06
1.03201e-06
1.03126e-06
1.03091e-06
1.02945e-06
1.02945e-06
1.02945e-06
1.02945e-06
1.02945e-06
1.03111e-06
1.0313e-06
1.03144e-06
1.03199e-06
1.03126e-06
1.03094e-06
1.02945e-06
1.02945e-06
1.02945e-06
1.03114e-06
1.0313e-06
1.03142e-06
1.03215e-06
1.032e-06
1.03134e-06
1.03138e-06
1.03137e-06
1.03137e-06
1.03138e-06
1.03144e-06
1.03215e-06
1.03203e-06
1.03216e-06
1.03217e-06
1.03217e-06
1.03216e-06
1.02233e-06
1.02148e-06
1.02141e-06
1.02146e-06
1.02231e-06
1.02236e-06
1.02235e-06
1.0216e-06
1.02113e-06
1.0198e-06
1.0198e-06
1.0198e-06
1.02128e-06
1.02161e-06
1.02234e-06
1.0216e-06
1.0211e-06
1.0198e-06
1.0198e-06
1.0198e-06
1.0198e-06
1.0198e-06
1.02126e-06
1.02161e-06
1.02234e-06
1.02233e-06
1.02113e-06
1.0198e-06
1.0198e-06
1.0198e-06
1.0198e-06
1.0198e-06
1.0198e-06
1.0198e-06
1.02128e-06
1.02169e-06
1.02238e-06
1.02148e-06
1.0198e-06
1.0198e-06
1.0198e-06
1.0198e-06
1.0198e-06
1.0198e-06
1.0198e-06
1.0198e-06
1.0198e-06
1.02173e-06
1.02251e-06
1.02141e-06
1.0198e-06
1.0198e-06
1.0198e-06
1.0198e-06
1.0198e-06
1.0198e-06
1.0198e-06
1.0198e-06
1.0198e-06
1.02171e-06
1.02252e-06
1.02146e-06
1.0198e-06
1.0198e-06
1.0198e-06
1.0198e-06
1.0198e-06
1.0198e-06
1.0198e-06
1.0198e-06
1.0198e-06
1.02172e-06
1.02252e-06
1.02231e-06
1.02128e-06
1.0198e-06
1.0198e-06
1.0198e-06
1.0198e-06
1.0198e-06
1.0198e-06
1.0198e-06
1.02149e-06
1.02173e-06
1.02251e-06
1.02236e-06
1.02161e-06
1.02126e-06
1.0198e-06
1.0198e-06
1.0198e-06
1.0198e-06
1.0198e-06
1.02146e-06
1.02165e-06
1.02179e-06
1.02234e-06
1.02161e-06
1.02128e-06
1.0198e-06
1.0198e-06
1.0198e-06
1.02149e-06
1.02165e-06
1.02176e-06
1.02249e-06
1.02234e-06
1.02169e-06
1.02173e-06
1.02171e-06
1.02172e-06
1.02173e-06
1.02179e-06
1.02249e-06
1.02238e-06
1.02251e-06
1.02252e-06
1.02252e-06
1.02251e-06
1.01267e-06
1.01183e-06
1.01176e-06
1.01181e-06
1.01266e-06
1.0127e-06
1.0127e-06
1.01195e-06
1.01148e-06
1.01014e-06
1.01014e-06
1.01014e-06
1.01163e-06
1.01195e-06
1.01268e-06
1.01195e-06
1.01144e-06
1.01014e-06
1.01014e-06
1.01014e-06
1.01014e-06
1.01014e-06
1.0116e-06
1.01195e-06
1.01269e-06
1.01267e-06
1.01148e-06
1.01014e-06
1.01014e-06
1.01014e-06
1.01014e-06
1.01014e-06
1.01014e-06
1.01014e-06
1.01163e-06
1.01204e-06
1.01272e-06
1.01183e-06
1.01014e-06
1.01014e-06
1.01014e-06
1.01014e-06
1.01014e-06
1.01014e-06
1.01014e-06
1.01014e-06
1.01014e-06
1.01207e-06
1.01286e-06
1.01176e-06
1.01014e-06
1.01014e-06
1.01014e-06
1.01014e-06
1.01014e-06
1.01014e-06
1.01014e-06
1.01014e-06
1.01014e-06
1.01206e-06
1.01286e-06
1.01181e-06
1.01014e-06
1.01014e-06
1.01014e-06
1.01014e-06
1.01014e-06
1.01014e-06
1.01014e-06
1.01014e-06
1.01014e-06
1.01206e-06
1.01286e-06
1.01266e-06
1.01163e-06
1.01014e-06
1.01014e-06
1.01014e-06
1.01014e-06
1.01014e-06
1.01014e-06
1.01014e-06
1.01184e-06
1.01208e-06
1.01285e-06
1.0127e-06
1.01195e-06
1.0116e-06
1.01014e-06
1.01014e-06
1.01014e-06
1.01014e-06
1.01014e-06
1.0118e-06
1.01199e-06
1.01213e-06
1.01268e-06
1.01195e-06
1.01163e-06
1.01014e-06
1.01014e-06
1.01014e-06
1.01184e-06
1.01199e-06
1.01211e-06
1.01284e-06
1.01269e-06
1.01204e-06
1.01207e-06
1.01206e-06
1.01206e-06
1.01208e-06
1.01213e-06
1.01284e-06
1.01272e-06
1.01286e-06
1.01286e-06
1.01286e-06
1.01285e-06
1.00302e-06
1.00217e-06
1.0021e-06
1.00215e-06
1.00301e-06
1.00305e-06
1.00305e-06
1.00229e-06
1.00183e-06
1.00049e-06
1.00049e-06
1.00049e-06
1.00197e-06
1.0023e-06
1.00303e-06
1.00229e-06
1.00179e-06
1.00049e-06
1.00049e-06
1.00049e-06
1.00049e-06
1.00049e-06
1.00195e-06
1.0023e-06
1.00303e-06
1.00302e-06
1.00183e-06
1.00049e-06
1.00049e-06
1.00049e-06
1.00049e-06
1.00049e-06
1.00049e-06
1.00049e-06
1.00198e-06
1.00238e-06
1.00307e-06
1.00217e-06
1.00049e-06
1.00049e-06
1.00049e-06
1.00049e-06
1.00049e-06
1.00049e-06
1.00049e-06
1.00049e-06
1.00049e-06
1.00242e-06
1.0032e-06
1.0021e-06
1.00049e-06
1.00049e-06
1.00049e-06
1.00049e-06
1.00049e-06
1.00049e-06
1.00049e-06
1.00049e-06
1.00049e-06
1.0024e-06
1.00321e-06
1.00215e-06
1.00049e-06
1.00049e-06
1.00049e-06
1.00049e-06
1.00049e-06
1.00049e-06
1.00049e-06
1.00049e-06
1.00049e-06
1.00241e-06
1.00321e-06
1.00301e-06
1.00197e-06
1.00049e-06
1.00049e-06
1.00049e-06
1.00049e-06
1.00049e-06
1.00049e-06
1.00049e-06
1.00218e-06
1.00242e-06
1.0032e-06
1.00305e-06
1.0023e-06
1.00195e-06
1.00049e-06
1.00049e-06
1.00049e-06
1.00049e-06
1.00049e-06
1.00215e-06
1.00234e-06
1.00248e-06
1.00303e-06
1.0023e-06
1.00198e-06
1.00049e-06
1.00049e-06
1.00049e-06
1.00218e-06
1.00234e-06
1.00245e-06
1.00318e-06
1.00303e-06
1.00238e-06
1.00242e-06
1.0024e-06
1.00241e-06
1.00242e-06
1.00248e-06
1.00318e-06
1.00307e-06
1.0032e-06
1.00321e-06
1.00321e-06
1.0032e-06
9.93364e-07
9.92518e-07
9.92451e-07
9.925e-07
9.93351e-07
9.93396e-07
9.93391e-07
9.92638e-07
9.92171e-07
9.90835e-07
9.90836e-07
9.90835e-07
9.9232e-07
9.92647e-07
9.93376e-07
9.92638e-07
9.92137e-07
9.90836e-07
9.90837e-07
9.90836e-07
9.90837e-07
9.90836e-07
9.92297e-07
9.92644e-07
9.93379e-07
9.93364e-07
9.92171e-07
9.90836e-07
9.90836e-07
9.90836e-07
9.90836e-07
9.90836e-07
9.90836e-07
9.90836e-07
9.92321e-07
9.92729e-07
9.93416e-07
9.92518e-07
9.90835e-07
9.90837e-07
9.90836e-07
9.90837e-07
9.90836e-07
9.90837e-07
9.90836e-07
9.90837e-07
9.90835e-07
9.92765e-07
9.93548e-07
9.92451e-07
9.90836e-07
9.90836e-07
9.90836e-07
9.90836e-07
9.90836e-07
9.90836e-07
9.90836e-07
9.90836e-07
9.90836e-07
9.9275e-07
9.93555e-07
9.925e-07
9.90835e-07
9.90837e-07
9.90836e-07
9.90837e-07
9.90836e-07
9.90837e-07
9.90836e-07
9.90837e-07
9.90835e-07
9.92756e-07
9.93556e-07
9.93351e-07
9.9232e-07
9.90836e-07
9.90836e-07
9.90836e-07
9.90836e-07
9.90836e-07
9.90836e-07
9.90836e-07
9.92528e-07
9.92769e-07
9.93546e-07
9.93396e-07
9.92647e-07
9.92297e-07
9.90836e-07
9.90837e-07
9.90836e-07
9.90837e-07
9.90836e-07
9.92494e-07
9.92686e-07
9.92825e-07
9.93376e-07
9.92644e-07
9.92321e-07
9.90835e-07
9.90836e-07
9.90835e-07
9.92528e-07
9.92686e-07
9.928e-07
9.93531e-07
9.93379e-07
9.92729e-07
9.92765e-07
9.9275e-07
9.92756e-07
9.92769e-07
9.92825e-07
9.93531e-07
9.93416e-07
9.93548e-07
9.93555e-07
9.93556e-07
9.93546e-07
9.8371e-07
9.82864e-07
9.82797e-07
9.82846e-07
9.83698e-07
9.83742e-07
9.83737e-07
9.82984e-07
9.82517e-07
9.81181e-07
9.81182e-07
9.81181e-07
9.82666e-07
9.82993e-07
9.83722e-07
9.82984e-07
9.82483e-07
9.81182e-07
9.81183e-07
9.81182e-07
9.81183e-07
9.81182e-07
9.82643e-07
9.8299e-07
9.83725e-07
9.8371e-07
9.82517e-07
9.81182e-07
9.81182e-07
9.81182e-07
9.81182e-07
9.81182e-07
9.81182e-07
9.81182e-07
9.82667e-07
9.83075e-07
9.83762e-07
9.82864e-07
9.81181e-07
9.81183e-07
9.81182e-07
9.81183e-07
9.81182e-07
9.81183e-07
9.81182e-07
9.81183e-07
9.81181e-07
9.83111e-07
9.83894e-07
9.82797e-07
9.81182e-07
9.81182e-07
9.81182e-07
9.81182e-07
9.81182e-07
9.81182e-07
9.81182e-07
9.81182e-07
9.81182e-07
9.83096e-07
9.83902e-07
9.82846e-07
9.81181e-07
9.81183e-07
9.81182e-07
9.81183e-07
9.81182e-07
9.81183e-07
9.81182e-07
9.81183e-07
9.81181e-07
9.83102e-07
9.83903e-07
9.83698e-07
9.82666e-07
9.81182e-07
9.81182e-07
9.81182e-07
9.81182e-07
9.81182e-07
9.81182e-07
9.81182e-07
9.82874e-07
9.83115e-07
9.83893e-07
9.83742e-07
9.82993e-07
9.82643e-07
9.81182e-07
9.81183e-07
9.81182e-07
9.81183e-07
9.81182e-07
9.8284e-07
9.83032e-07
9.83171e-07
9.83722e-07
9.8299e-07
9.82667e-07
9.81181e-07
9.81182e-07
9.81181e-07
9.82874e-07
9.83032e-07
9.83146e-07
9.83877e-07
9.83725e-07
9.83075e-07
9.83111e-07
9.83096e-07
9.83102e-07
9.83115e-07
9.83171e-07
9.83877e-07
9.83762e-07
9.83894e-07
9.83902e-07
9.83903e-07
9.83893e-07
9.74056e-07
9.7321e-07
9.73143e-07
9.73192e-07
9.74044e-07
9.74089e-07
9.74083e-07
9.7333e-07
9.72864e-07
9.71527e-07
9.71528e-07
9.71527e-07
9.73012e-07
9.73339e-07
9.74068e-07
9.7333e-07
9.72829e-07
9.71528e-07
9.71529e-07
9.71528e-07
9.71529e-07
9.71528e-07
9.72989e-07
9.73337e-07
9.74071e-07
9.74056e-07
9.72864e-07
9.71528e-07
9.71528e-07
9.71528e-07
9.71528e-07
9.71528e-07
9.71528e-07
9.71528e-07
9.73013e-07
9.73421e-07
9.74108e-07
9.7321e-07
9.71527e-07
9.71529e-07
9.71528e-07
9.71529e-07
9.71528e-07
9.71529e-07
9.71528e-07
9.71529e-07
9.71527e-07
9.73457e-07
9.7424e-07
9.73143e-07
9.71528e-07
9.71528e-07
9.71528e-07
9.71528e-07
9.71528e-07
9.71528e-07
9.71528e-07
9.71528e-07
9.71528e-07
9.73442e-07
9.74248e-07
9.73192e-07
9.71527e-07
9.71529e-07
9.71528e-07
9.71529e-07
9.71528e-07
9.71529e-07
9.71528e-07
9.71529e-07
9.71527e-07
9.73448e-07
9.74249e-07
9.74044e-07
9.73012e-07
9.71528e-07
9.71528e-07
9.71528e-07
9.71528e-07
9.71528e-07
9.71528e-07
9.71528e-07
9.7322e-07
9.73461e-07
9.74239e-07
9.74088e-07
9.73339e-07
9.72989e-07
9.71528e-07
9.71529e-07
9.71528e-07
9.71529e-07
9.71528e-07
9.73186e-07
9.73378e-07
9.73517e-07
9.74068e-07
9.73337e-07
9.73013e-07
9.71527e-07
9.71528e-07
9.71527e-07
9.7322e-07
9.73378e-07
9.73493e-07
9.74223e-07
9.74071e-07
9.73421e-07
9.73457e-07
9.73442e-07
9.73448e-07
9.73461e-07
9.73517e-07
9.74223e-07
9.74108e-07
9.7424e-07
9.74248e-07
9.74249e-07
9.74239e-07
9.64402e-07
9.63556e-07
9.63489e-07
9.63538e-07
9.6439e-07
9.64435e-07
9.64429e-07
9.63676e-07
9.6321e-07
9.61873e-07
9.61874e-07
9.61873e-07
9.63358e-07
9.63685e-07
9.64414e-07
9.63676e-07
9.63175e-07
9.61874e-07
9.61875e-07
9.61874e-07
9.61875e-07
9.61874e-07
9.63335e-07
9.63683e-07
9.64417e-07
9.64402e-07
9.6321e-07
9.61874e-07
9.61874e-07
9.61874e-07
9.61874e-07
9.61874e-07
9.61874e-07
9.61874e-07
9.63359e-07
9.63767e-07
9.64454e-07
9.63556e-07
9.61873e-07
9.61875e-07
9.61874e-07
9.61875e-07
9.61874e-07
9.61875e-07
9.61874e-07
9.61875e-07
9.61873e-07
9.63803e-07
9.64586e-07
9.63489e-07
9.61874e-07
9.61874e-07
9.61874e-07
9.61874e-07
9.61874e-07
9.61874e-07
9.61874e-07
9.61874e-07
9.61874e-07
9.63788e-07
9.64594e-07
9.63538e-07
9.61873e-07
9.61875e-07
9.61874e-07
9.61875e-07
9.61874e-07
9.61875e-07
9.61874e-07
9.61875e-07
9.61873e-07
9.63795e-07
9.64595e-07
9.6439e-07
9.63358e-07
9.61874e-07
9.61874e-07
9.61874e-07
9.61874e-07
9.61874e-07
9.61874e-07
9.61874e-07
9.63566e-07
9.63807e-07
9.64585e-07
9.64434e-07
9.63685e-07
9.63335e-07
9.61874e-07
9.61875e-07
9.61874e-07
9.61875e-07
9.61874e-07
9.63533e-07
9.63724e-07
9.63863e-07
9.64414e-07
9.63683e-07
9.63359e-07
9.61873e-07
9.61874e-07
9.61873e-07
9.63566e-07
9.63724e-07
9.63839e-07
9.64569e-07
9.64417e-07
9.63767e-07
9.63803e-07
9.63788e-07
9.63794e-07
9.63807e-07
9.63863e-07
9.64569e-07
9.64454e-07
9.64586e-07
9.64594e-07
9.64595e-07
9.64585e-07
9.54748e-07
9.53902e-07
9.53835e-07
9.53884e-07
9.54736e-07
9.54781e-07
9.54775e-07
9.54022e-07
9.53556e-07
9.52219e-07
9.5222e-07
9.52219e-07
9.53704e-07
9.54031e-07
9.5476e-07
9.54022e-07
9.53521e-07
9.5222e-07
9.52221e-07
9.5222e-07
9.52221e-07
9.5222e-07
9.53681e-07
9.54029e-07
9.54763e-07
9.54748e-07
9.53556e-07
9.5222e-07
9.5222e-07
9.5222e-07
9.5222e-07
9.5222e-07
9.5222e-07
9.5222e-07
9.53705e-07
9.54113e-07
9.548e-07
9.53902e-07
9.52219e-07
9.52221e-07
9.5222e-07
9.52221e-07
9.5222e-07
9.52221e-07
9.5222e-07
9.52221e-07
9.5222e-07
9.54149e-07
9.54932e-07
9.53835e-07
9.5222e-07
9.5222e-07
9.5222e-07
9.5222e-07
9.5222e-07
9.5222e-07
9.5222e-07
9.5222e-07
9.5222e-07
9.54134e-07
9.5494e-07
9.53884e-07
9.52219e-07
9.52221e-07
9.5222e-07
9.52221e-07
9.5222e-07
9.52221e-07
9.5222e-07