/*--------------------------------*- C++ -*----------------------------------*\
| =========                 |                                                 |
| \\      /  F ield         | OpenFOAM: The Open Source CFD Toolbox           |
|  \\    /   O peration     | Version:  v2012                                 |
|   \\  /    A nd           | Website:  www.openfoam.com                      |
|    \\/     M anipulation  |                                                 |
\*---------------------------------------------------------------------------*/
FoamFile
{
    version     2.0;
    format      ascii;
    class       volScalarField;
    location    "45";
    object      p;
}
// * * * * * * * * * * * * * * * * * * * * * * * * * * * * * * * * * * * * * //

dimensions      [0 2 -2 0 0 0 0];


internalField   nonuniform List<scalar> 
292667
(
1.24206e-06
1.23244e-06
1.23166e-06
1.23173e-06
1.23281e-06
1.24299e-06
1.23265e-06
1.22989e-06
1.22828e-06
1.22762e-06
1.22771e-06
1.22857e-06
1.23043e-06
1.23345e-06
1.23265e-06
1.22908e-06
1.22686e-06
1.22565e-06
1.22513e-06
1.2252e-06
1.22587e-06
1.22729e-06
1.22979e-06
1.23368e-06
1.24206e-06
1.22989e-06
1.22686e-06
1.22507e-06
1.22407e-06
1.22364e-06
1.2237e-06
1.22425e-06
1.22542e-06
1.22746e-06
1.23086e-06
1.24177e-06
1.23244e-06
1.22828e-06
1.22564e-06
1.22407e-06
1.22317e-06
1.22279e-06
1.22284e-06
1.22334e-06
1.22438e-06
1.22618e-06
1.22917e-06
1.23622e-06
1.23166e-06
1.22762e-06
1.22513e-06
1.22364e-06
1.22279e-06
1.22242e-06
1.22247e-06
1.22295e-06
1.22394e-06
1.22564e-06
1.22848e-06
1.2345e-06
1.23173e-06
1.22771e-06
1.2252e-06
1.2237e-06
1.22284e-06
1.22247e-06
1.22252e-06
1.223e-06
1.224e-06
1.22571e-06
1.22857e-06
1.23483e-06
1.23281e-06
1.22857e-06
1.22587e-06
1.22425e-06
1.22334e-06
1.22295e-06
1.223e-06
1.22352e-06
1.22458e-06
1.22642e-06
1.2295e-06
1.23655e-06
1.24299e-06
1.23043e-06
1.22728e-06
1.22542e-06
1.22438e-06
1.22394e-06
1.224e-06
1.22458e-06
1.2258e-06
1.22793e-06
1.23145e-06
1.2417e-06
1.23345e-06
1.22979e-06
1.22746e-06
1.22618e-06
1.22564e-06
1.22571e-06
1.22642e-06
1.22793e-06
1.23058e-06
1.23716e-06
1.23368e-06
1.23086e-06
1.22917e-06
1.22848e-06
1.22857e-06
1.2295e-06
1.23145e-06
1.23716e-06
1.24177e-06
1.23622e-06
1.2345e-06
1.23483e-06
1.23655e-06
1.2417e-06
1.21474e-06
1.21381e-06
1.21378e-06
1.21382e-06
1.2147e-06
1.21461e-06
1.2148e-06
1.21407e-06
1.21367e-06
1.21219e-06
1.21217e-06
1.21219e-06
1.21382e-06
1.21409e-06
1.2148e-06
1.21407e-06
1.21367e-06
1.21224e-06
1.21218e-06
1.21223e-06
1.21218e-06
1.21224e-06
1.2138e-06
1.21407e-06
1.21477e-06
1.21474e-06
1.21367e-06
1.21224e-06
1.21217e-06
1.21221e-06
1.2122e-06
1.21221e-06
1.21218e-06
1.21224e-06
1.21379e-06
1.21409e-06
1.21485e-06
1.21381e-06
1.21219e-06
1.21218e-06
1.21221e-06
1.21218e-06
1.21218e-06
1.21218e-06
1.21221e-06
1.21218e-06
1.21219e-06
1.21422e-06
1.21496e-06
1.21378e-06
1.21217e-06
1.21223e-06
1.2122e-06
1.21218e-06
1.21217e-06
1.21218e-06
1.2122e-06
1.21223e-06
1.21217e-06
1.21422e-06
1.21485e-06
1.21382e-06
1.21219e-06
1.21218e-06
1.21221e-06
1.21218e-06
1.21218e-06
1.21218e-06
1.21221e-06
1.21218e-06
1.21219e-06
1.21423e-06
1.21488e-06
1.2147e-06
1.21382e-06
1.21224e-06
1.21218e-06
1.21221e-06
1.2122e-06
1.21221e-06
1.21218e-06
1.21224e-06
1.21395e-06
1.21413e-06
1.21493e-06
1.21461e-06
1.21409e-06
1.2138e-06
1.21224e-06
1.21218e-06
1.21223e-06
1.21218e-06
1.21224e-06
1.21392e-06
1.2141e-06
1.21413e-06
1.2148e-06
1.21407e-06
1.21379e-06
1.21219e-06
1.21217e-06
1.21219e-06
1.21395e-06
1.2141e-06
1.21419e-06
1.21492e-06
1.21477e-06
1.21409e-06
1.21422e-06
1.21422e-06
1.21423e-06
1.21413e-06
1.21413e-06
1.21492e-06
1.21485e-06
1.21496e-06
1.21485e-06
1.21488e-06
1.21493e-06
1.2044e-06
1.20348e-06
1.20341e-06
1.20346e-06
1.20437e-06
1.20443e-06
1.20444e-06
1.20362e-06
1.20316e-06
1.20172e-06
1.20171e-06
1.20172e-06
1.20331e-06
1.20364e-06
1.2044e-06
1.20362e-06
1.20315e-06
1.20177e-06
1.20177e-06
1.20181e-06
1.20177e-06
1.20177e-06
1.20332e-06
1.20364e-06
1.2044e-06
1.2044e-06
1.20316e-06
1.20177e-06
1.20178e-06
1.20184e-06
1.20184e-06
1.20184e-06
1.20178e-06
1.20177e-06
1.20332e-06
1.20369e-06
1.20445e-06
1.20348e-06
1.20172e-06
1.20177e-06
1.20184e-06
1.20185e-06
1.20187e-06
1.20185e-06
1.20184e-06
1.20177e-06
1.20172e-06
1.20373e-06
1.20457e-06
1.20341e-06
1.20171e-06
1.20181e-06
1.20184e-06
1.20187e-06
1.20187e-06
1.20187e-06
1.20184e-06
1.20181e-06
1.20171e-06
1.20373e-06
1.20458e-06
1.20346e-06
1.20172e-06
1.20177e-06
1.20184e-06
1.20185e-06
1.20187e-06
1.20185e-06
1.20184e-06
1.20177e-06
1.20172e-06
1.20373e-06
1.20458e-06
1.20437e-06
1.20332e-06
1.20177e-06
1.20178e-06
1.20184e-06
1.20184e-06
1.20184e-06
1.20178e-06
1.20177e-06
1.20351e-06
1.20373e-06
1.20458e-06
1.20443e-06
1.20364e-06
1.20332e-06
1.20177e-06
1.20177e-06
1.20181e-06
1.20177e-06
1.20177e-06
1.20348e-06
1.20366e-06
1.20377e-06
1.2044e-06
1.20364e-06
1.20332e-06
1.20172e-06
1.20171e-06
1.20172e-06
1.20351e-06
1.20366e-06
1.20375e-06
1.20456e-06
1.2044e-06
1.20369e-06
1.20373e-06
1.20373e-06
1.20373e-06
1.20373e-06
1.20377e-06
1.20456e-06
1.20445e-06
1.20457e-06
1.20458e-06
1.20458e-06
1.20458e-06
1.19411e-06
1.19317e-06
1.1931e-06
1.19315e-06
1.19408e-06
1.19414e-06
1.19414e-06
1.19331e-06
1.19283e-06
1.19136e-06
1.19136e-06
1.19136e-06
1.19297e-06
1.19331e-06
1.19411e-06
1.19331e-06
1.1928e-06
1.19139e-06
1.1914e-06
1.19142e-06
1.1914e-06
1.19139e-06
1.19296e-06
1.19331e-06
1.19411e-06
1.19411e-06
1.19283e-06
1.19139e-06
1.19142e-06
1.19145e-06
1.19145e-06
1.19145e-06
1.19142e-06
1.19139e-06
1.19298e-06
1.19339e-06
1.19416e-06
1.19317e-06
1.19136e-06
1.1914e-06
1.19145e-06
1.19147e-06
1.19149e-06
1.19147e-06
1.19145e-06
1.1914e-06
1.19136e-06
1.19341e-06
1.19428e-06
1.1931e-06
1.19136e-06
1.19142e-06
1.19145e-06
1.19149e-06
1.19149e-06
1.19149e-06
1.19145e-06
1.19142e-06
1.19136e-06
1.1934e-06
1.19428e-06
1.19315e-06
1.19136e-06
1.1914e-06
1.19145e-06
1.19147e-06
1.19149e-06
1.19147e-06
1.19145e-06
1.1914e-06
1.19136e-06
1.19341e-06
1.19428e-06
1.19408e-06
1.19297e-06
1.19139e-06
1.19142e-06
1.19145e-06
1.19145e-06
1.19145e-06
1.19142e-06
1.19139e-06
1.19317e-06
1.19342e-06
1.19429e-06
1.19414e-06
1.19331e-06
1.19296e-06
1.19139e-06
1.1914e-06
1.19142e-06
1.1914e-06
1.19139e-06
1.19314e-06
1.19334e-06
1.19348e-06
1.19411e-06
1.19331e-06
1.19298e-06
1.19136e-06
1.19136e-06
1.19136e-06
1.19317e-06
1.19334e-06
1.19345e-06
1.19427e-06
1.19411e-06
1.19339e-06
1.19341e-06
1.1934e-06
1.19341e-06
1.19342e-06
1.19348e-06
1.19427e-06
1.19416e-06
1.19428e-06
1.19428e-06
1.19428e-06
1.19429e-06
1.18381e-06
1.18287e-06
1.1828e-06
1.18285e-06
1.18378e-06
1.18384e-06
1.18385e-06
1.18301e-06
1.18252e-06
1.18104e-06
1.18104e-06
1.18104e-06
1.18266e-06
1.18301e-06
1.18381e-06
1.18301e-06
1.18249e-06
1.18106e-06
1.18107e-06
1.18108e-06
1.18107e-06
1.18106e-06
1.18264e-06
1.18301e-06
1.18381e-06
1.18381e-06
1.18252e-06
1.18106e-06
1.18107e-06
1.1811e-06
1.1811e-06
1.1811e-06
1.18107e-06
1.18106e-06
1.18266e-06
1.18309e-06
1.18387e-06
1.18287e-06
1.18104e-06
1.18107e-06
1.1811e-06
1.18111e-06
1.18112e-06
1.18111e-06
1.1811e-06
1.18107e-06
1.18104e-06
1.18311e-06
1.18398e-06
1.1828e-06
1.18104e-06
1.18108e-06
1.1811e-06
1.18112e-06
1.18113e-06
1.18112e-06
1.1811e-06
1.18108e-06
1.18104e-06
1.18309e-06
1.18398e-06
1.18285e-06
1.18104e-06
1.18107e-06
1.1811e-06
1.18111e-06
1.18112e-06
1.18111e-06
1.1811e-06
1.18107e-06
1.18104e-06
1.1831e-06
1.18399e-06
1.18378e-06
1.18266e-06
1.18106e-06
1.18107e-06
1.1811e-06
1.1811e-06
1.1811e-06
1.18107e-06
1.18106e-06
1.18286e-06
1.18312e-06
1.18399e-06
1.18384e-06
1.18301e-06
1.18264e-06
1.18106e-06
1.18107e-06
1.18108e-06
1.18107e-06
1.18106e-06
1.18283e-06
1.18303e-06
1.18318e-06
1.18381e-06
1.18301e-06
1.18266e-06
1.18104e-06
1.18104e-06
1.18104e-06
1.18286e-06
1.18303e-06
1.18316e-06
1.18397e-06
1.18381e-06
1.18309e-06
1.18311e-06
1.18309e-06
1.1831e-06
1.18312e-06
1.18318e-06
1.18397e-06
1.18387e-06
1.18398e-06
1.18398e-06
1.18399e-06
1.18399e-06
1.17351e-06
1.17257e-06
1.1725e-06
1.17255e-06
1.17348e-06
1.17354e-06
1.17355e-06
1.1727e-06
1.17221e-06
1.17073e-06
1.17074e-06
1.17073e-06
1.17236e-06
1.17271e-06
1.17351e-06
1.1727e-06
1.17218e-06
1.17074e-06
1.17075e-06
1.17075e-06
1.17075e-06
1.17074e-06
1.17233e-06
1.1727e-06
1.17352e-06
1.17351e-06
1.17221e-06
1.17074e-06
1.17075e-06
1.17076e-06
1.17077e-06
1.17076e-06
1.17075e-06
1.17074e-06
1.17236e-06
1.17279e-06
1.17357e-06
1.17257e-06
1.17073e-06
1.17075e-06
1.17076e-06
1.17077e-06
1.17078e-06
1.17077e-06
1.17076e-06
1.17075e-06
1.17073e-06
1.17281e-06
1.17369e-06
1.1725e-06
1.17074e-06
1.17075e-06
1.17077e-06
1.17078e-06
1.17078e-06
1.17078e-06
1.17077e-06
1.17075e-06
1.17074e-06
1.17279e-06
1.17369e-06
1.17255e-06
1.17073e-06
1.17075e-06
1.17076e-06
1.17077e-06
1.17078e-06
1.17077e-06
1.17076e-06
1.17075e-06
1.17073e-06
1.1728e-06
1.17369e-06
1.17348e-06
1.17236e-06
1.17074e-06
1.17075e-06
1.17076e-06
1.17077e-06
1.17076e-06
1.17075e-06
1.17074e-06
1.17256e-06
1.17282e-06
1.17369e-06
1.17354e-06
1.17271e-06
1.17233e-06
1.17074e-06
1.17075e-06
1.17075e-06
1.17075e-06
1.17074e-06
1.17252e-06
1.17273e-06
1.17288e-06
1.17351e-06
1.1727e-06
1.17236e-06
1.17073e-06
1.17074e-06
1.17073e-06
1.17256e-06
1.17273e-06
1.17286e-06
1.17368e-06
1.17352e-06
1.17279e-06
1.17281e-06
1.17279e-06
1.1728e-06
1.17282e-06
1.17288e-06
1.17368e-06
1.17357e-06
1.17369e-06
1.17369e-06
1.17369e-06
1.17369e-06
1.16321e-06
1.16227e-06
1.1622e-06
1.16225e-06
1.16318e-06
1.16324e-06
1.16325e-06
1.1624e-06
1.16191e-06
1.16043e-06
1.16043e-06
1.16043e-06
1.16205e-06
1.1624e-06
1.16321e-06
1.1624e-06
1.16188e-06
1.16043e-06
1.16044e-06
1.16044e-06
1.16044e-06
1.16043e-06
1.16203e-06
1.1624e-06
1.16322e-06
1.16321e-06
1.16191e-06
1.16043e-06
1.16044e-06
1.16045e-06
1.16045e-06
1.16045e-06
1.16044e-06
1.16043e-06
1.16205e-06
1.16249e-06
1.16327e-06
1.16227e-06
1.16043e-06
1.16044e-06
1.16045e-06
1.16045e-06
1.16045e-06
1.16045e-06
1.16045e-06
1.16044e-06
1.16043e-06
1.16251e-06
1.16339e-06
1.1622e-06
1.16043e-06
1.16044e-06
1.16045e-06
1.16045e-06
1.16046e-06
1.16045e-06
1.16045e-06
1.16044e-06
1.16043e-06
1.16249e-06
1.16338e-06
1.16225e-06
1.16043e-06
1.16044e-06
1.16045e-06
1.16045e-06
1.16045e-06
1.16045e-06
1.16045e-06
1.16044e-06
1.16043e-06
1.1625e-06
1.16339e-06
1.16318e-06
1.16205e-06
1.16043e-06
1.16044e-06
1.16045e-06
1.16045e-06
1.16045e-06
1.16044e-06
1.16043e-06
1.16225e-06
1.16252e-06
1.16339e-06
1.16324e-06
1.1624e-06
1.16203e-06
1.16043e-06
1.16044e-06
1.16044e-06
1.16044e-06
1.16043e-06
1.16222e-06
1.16243e-06
1.16258e-06
1.16321e-06
1.1624e-06
1.16205e-06
1.16043e-06
1.16043e-06
1.16043e-06
1.16225e-06
1.16243e-06
1.16256e-06
1.16338e-06
1.16322e-06
1.16249e-06
1.16251e-06
1.16249e-06
1.1625e-06
1.16252e-06
1.16258e-06
1.16338e-06
1.16327e-06
1.16339e-06
1.16338e-06
1.16339e-06
1.16339e-06
1.15291e-06
1.15197e-06
1.1519e-06
1.15195e-06
1.15288e-06
1.15294e-06
1.15295e-06
1.1521e-06
1.15161e-06
1.15013e-06
1.15013e-06
1.15013e-06
1.15175e-06
1.1521e-06
1.15291e-06
1.1521e-06
1.15157e-06
1.15013e-06
1.15013e-06
1.15013e-06
1.15013e-06
1.15013e-06
1.15173e-06
1.1521e-06
1.15291e-06
1.15291e-06
1.15161e-06
1.15013e-06
1.15013e-06
1.15014e-06
1.15014e-06
1.15014e-06
1.15013e-06
1.15013e-06
1.15175e-06
1.15218e-06
1.15297e-06
1.15197e-06
1.15013e-06
1.15013e-06
1.15014e-06
1.15014e-06
1.15014e-06
1.15014e-06
1.15014e-06
1.15013e-06
1.15013e-06
1.15221e-06
1.15308e-06
1.1519e-06
1.15013e-06
1.15013e-06
1.15014e-06
1.15014e-06
1.15014e-06
1.15014e-06
1.15014e-06
1.15013e-06
1.15013e-06
1.15219e-06
1.15308e-06
1.15195e-06
1.15013e-06
1.15013e-06
1.15014e-06
1.15014e-06
1.15014e-06
1.15014e-06
1.15014e-06
1.15013e-06
1.15013e-06
1.15219e-06
1.15309e-06
1.15288e-06
1.15175e-06
1.15013e-06
1.15013e-06
1.15014e-06
1.15014e-06
1.15014e-06
1.15013e-06
1.15013e-06
1.15195e-06
1.15222e-06
1.15309e-06
1.15294e-06
1.1521e-06
1.15173e-06
1.15013e-06
1.15013e-06
1.15013e-06
1.15013e-06
1.15013e-06
1.15192e-06
1.15213e-06
1.15228e-06
1.15291e-06
1.1521e-06
1.15175e-06
1.15013e-06
1.15013e-06
1.15013e-06
1.15195e-06
1.15213e-06
1.15226e-06
1.15308e-06
1.15291e-06
1.15218e-06
1.15221e-06
1.15219e-06
1.15219e-06
1.15222e-06
1.15228e-06
1.15308e-06
1.15297e-06
1.15308e-06
1.15308e-06
1.15309e-06
1.15309e-06
1.14261e-06
1.14167e-06
1.1416e-06
1.14165e-06
1.14258e-06
1.14264e-06
1.14265e-06
1.1418e-06
1.14131e-06
1.13982e-06
1.13982e-06
1.13982e-06
1.14145e-06
1.1418e-06
1.14261e-06
1.1418e-06
1.14127e-06
1.13983e-06
1.13983e-06
1.13983e-06
1.13983e-06
1.13983e-06
1.14143e-06
1.1418e-06
1.14261e-06
1.14261e-06
1.14131e-06
1.13983e-06
1.13983e-06
1.13983e-06
1.13983e-06
1.13983e-06
1.13983e-06
1.13983e-06
1.14145e-06
1.14188e-06
1.14267e-06
1.14167e-06
1.13982e-06
1.13983e-06
1.13983e-06
1.13983e-06
1.13983e-06
1.13983e-06
1.13983e-06
1.13983e-06
1.13982e-06
1.1419e-06
1.14278e-06
1.1416e-06
1.13982e-06
1.13983e-06
1.13983e-06
1.13983e-06
1.13983e-06
1.13983e-06
1.13983e-06
1.13983e-06
1.13982e-06
1.14189e-06
1.14278e-06
1.14165e-06
1.13982e-06
1.13983e-06
1.13983e-06
1.13983e-06
1.13983e-06
1.13983e-06
1.13983e-06
1.13983e-06
1.13982e-06
1.14189e-06
1.14278e-06
1.14258e-06
1.14145e-06
1.13983e-06
1.13983e-06
1.13983e-06
1.13983e-06
1.13983e-06
1.13983e-06
1.13983e-06
1.14165e-06
1.14192e-06
1.14279e-06
1.14264e-06
1.1418e-06
1.14143e-06
1.13983e-06
1.13983e-06
1.13983e-06
1.13983e-06
1.13983e-06
1.14162e-06
1.14183e-06
1.14198e-06
1.14261e-06
1.1418e-06
1.14145e-06
1.13982e-06
1.13982e-06
1.13982e-06
1.14165e-06
1.14183e-06
1.14196e-06
1.14278e-06
1.14261e-06
1.14188e-06
1.1419e-06
1.14188e-06
1.14189e-06
1.14192e-06
1.14198e-06
1.14278e-06
1.14267e-06
1.14278e-06
1.14278e-06
1.14278e-06
1.14279e-06
1.13231e-06
1.13137e-06
1.1313e-06
1.13135e-06
1.13228e-06
1.13234e-06
1.13235e-06
1.1315e-06
1.13101e-06
1.12952e-06
1.12952e-06
1.12952e-06
1.13115e-06
1.1315e-06
1.13231e-06
1.1315e-06
1.13097e-06
1.12952e-06
1.12952e-06
1.12952e-06
1.12952e-06
1.12952e-06
1.13113e-06
1.1315e-06
1.13231e-06
1.13231e-06
1.13101e-06
1.12952e-06
1.12952e-06
1.12953e-06
1.12953e-06
1.12953e-06
1.12952e-06
1.12952e-06
1.13115e-06
1.13158e-06
1.13236e-06
1.13137e-06
1.12952e-06
1.12952e-06
1.12953e-06
1.12953e-06
1.12953e-06
1.12953e-06
1.12953e-06
1.12952e-06
1.12952e-06
1.1316e-06
1.13248e-06
1.1313e-06
1.12952e-06
1.12952e-06
1.12953e-06
1.12953e-06
1.12953e-06
1.12953e-06
1.12953e-06
1.12952e-06
1.12952e-06
1.13158e-06
1.13248e-06
1.13135e-06
1.12952e-06
1.12952e-06
1.12953e-06
1.12953e-06
1.12953e-06
1.12953e-06
1.12953e-06
1.12952e-06
1.12952e-06
1.13159e-06
1.13248e-06
1.13228e-06
1.13115e-06
1.12952e-06
1.12952e-06
1.12953e-06
1.12953e-06
1.12953e-06
1.12952e-06
1.12952e-06
1.13135e-06
1.13162e-06
1.13249e-06
1.13234e-06
1.1315e-06
1.13113e-06
1.12952e-06
1.12952e-06
1.12952e-06
1.12952e-06
1.12952e-06
1.13131e-06
1.13153e-06
1.13168e-06
1.13231e-06
1.1315e-06
1.13115e-06
1.12952e-06
1.12952e-06
1.12952e-06
1.13135e-06
1.13153e-06
1.13166e-06
1.13247e-06
1.13231e-06
1.13158e-06
1.1316e-06
1.13158e-06
1.13159e-06
1.13162e-06
1.13168e-06
1.13247e-06
1.13236e-06
1.13248e-06
1.13248e-06
1.13248e-06
1.13249e-06
1.12201e-06
1.12107e-06
1.12099e-06
1.12104e-06
1.12198e-06
1.12204e-06
1.12205e-06
1.1212e-06
1.1207e-06
1.11922e-06
1.11922e-06
1.11922e-06
1.12085e-06
1.1212e-06
1.12201e-06
1.1212e-06
1.12067e-06
1.11922e-06
1.11922e-06
1.11922e-06
1.11922e-06
1.11922e-06
1.12082e-06
1.1212e-06
1.12201e-06
1.12201e-06
1.1207e-06
1.11922e-06
1.11922e-06
1.11922e-06
1.11922e-06
1.11922e-06
1.11922e-06
1.11922e-06
1.12085e-06
1.12128e-06
1.12206e-06
1.12107e-06
1.11922e-06
1.11922e-06
1.11922e-06
1.11922e-06
1.11922e-06
1.11922e-06
1.11922e-06
1.11922e-06
1.11922e-06
1.1213e-06
1.12218e-06
1.12099e-06
1.11922e-06
1.11922e-06
1.11922e-06
1.11922e-06
1.11922e-06
1.11922e-06
1.11922e-06
1.11922e-06
1.11922e-06
1.12128e-06
1.12218e-06
1.12104e-06
1.11922e-06
1.11922e-06
1.11922e-06
1.11922e-06
1.11922e-06
1.11922e-06
1.11922e-06
1.11922e-06
1.11922e-06
1.12129e-06
1.12218e-06
1.12198e-06
1.12085e-06
1.11922e-06
1.11922e-06
1.11922e-06
1.11922e-06
1.11922e-06
1.11922e-06
1.11922e-06
1.12105e-06
1.12131e-06
1.12219e-06
1.12204e-06
1.1212e-06
1.12082e-06
1.11922e-06
1.11922e-06
1.11922e-06
1.11922e-06
1.11922e-06
1.12101e-06
1.12123e-06
1.12138e-06
1.12201e-06
1.1212e-06
1.12085e-06
1.11922e-06
1.11922e-06
1.11922e-06
1.12105e-06
1.12123e-06
1.12135e-06
1.12217e-06
1.12201e-06
1.12128e-06
1.1213e-06
1.12128e-06
1.12129e-06
1.12131e-06
1.12138e-06
1.12217e-06
1.12206e-06
1.12218e-06
1.12218e-06
1.12218e-06
1.12219e-06
1.11171e-06
1.11076e-06
1.11069e-06
1.11074e-06
1.11168e-06
1.11174e-06
1.11174e-06
1.1109e-06
1.1104e-06
1.10892e-06
1.10892e-06
1.10892e-06
1.11055e-06
1.1109e-06
1.11171e-06
1.1109e-06
1.11037e-06
1.10892e-06
1.10892e-06
1.10892e-06
1.10892e-06
1.10892e-06
1.11052e-06
1.1109e-06
1.11171e-06
1.11171e-06
1.1104e-06
1.10892e-06
1.10892e-06
1.10892e-06
1.10892e-06
1.10892e-06
1.10892e-06
1.10892e-06
1.11055e-06
1.11098e-06
1.11176e-06
1.11076e-06
1.10892e-06
1.10892e-06
1.10892e-06
1.10892e-06
1.10892e-06
1.10892e-06
1.10892e-06
1.10892e-06
1.10892e-06
1.111e-06
1.11188e-06
1.11069e-06
1.10892e-06
1.10892e-06
1.10892e-06
1.10892e-06
1.10892e-06
1.10892e-06
1.10892e-06
1.10892e-06
1.10892e-06
1.11098e-06
1.11188e-06
1.11074e-06
1.10892e-06
1.10892e-06
1.10892e-06
1.10892e-06
1.10892e-06
1.10892e-06
1.10892e-06
1.10892e-06
1.10892e-06
1.11099e-06
1.11188e-06
1.11168e-06
1.11055e-06
1.10892e-06
1.10892e-06
1.10892e-06
1.10892e-06
1.10892e-06
1.10892e-06
1.10892e-06
1.11075e-06
1.11101e-06
1.11189e-06
1.11174e-06
1.1109e-06
1.11052e-06
1.10892e-06
1.10892e-06
1.10892e-06
1.10892e-06
1.10892e-06
1.11071e-06
1.11093e-06
1.11108e-06
1.11171e-06
1.1109e-06
1.11055e-06
1.10892e-06
1.10892e-06
1.10892e-06
1.11075e-06
1.11093e-06
1.11105e-06
1.11187e-06
1.11171e-06
1.11098e-06
1.111e-06
1.11098e-06
1.11099e-06
1.11101e-06
1.11108e-06
1.11187e-06
1.11176e-06
1.11188e-06
1.11188e-06
1.11188e-06
1.11189e-06
1.10141e-06
1.10046e-06
1.10039e-06
1.10044e-06
1.10137e-06
1.10144e-06
1.10144e-06
1.1006e-06
1.1001e-06
1.09862e-06
1.09862e-06
1.09862e-06
1.10025e-06
1.1006e-06
1.10141e-06
1.1006e-06
1.10007e-06
1.09862e-06
1.09862e-06
1.09862e-06
1.09862e-06
1.09862e-06
1.10022e-06
1.10059e-06
1.10141e-06
1.10141e-06
1.1001e-06
1.09862e-06
1.09862e-06
1.09862e-06
1.09862e-06
1.09862e-06
1.09862e-06
1.09862e-06
1.10025e-06
1.10068e-06
1.10146e-06
1.10046e-06
1.09862e-06
1.09862e-06
1.09862e-06
1.09862e-06
1.09862e-06
1.09862e-06
1.09862e-06
1.09862e-06
1.09862e-06
1.1007e-06
1.10158e-06
1.10039e-06
1.09862e-06
1.09862e-06
1.09862e-06
1.09862e-06
1.09862e-06
1.09862e-06
1.09862e-06
1.09862e-06
1.09862e-06
1.10068e-06
1.10158e-06
1.10044e-06
1.09862e-06
1.09862e-06
1.09862e-06
1.09862e-06
1.09862e-06
1.09862e-06
1.09862e-06
1.09862e-06
1.09862e-06
1.10069e-06
1.10158e-06
1.10137e-06
1.10025e-06
1.09862e-06
1.09862e-06
1.09862e-06
1.09862e-06
1.09862e-06
1.09862e-06
1.09862e-06
1.10044e-06
1.10071e-06
1.10158e-06
1.10144e-06
1.1006e-06
1.10022e-06
1.09862e-06
1.09862e-06
1.09862e-06
1.09862e-06
1.09862e-06
1.10041e-06
1.10062e-06
1.10078e-06
1.10141e-06
1.10059e-06
1.10025e-06
1.09862e-06
1.09862e-06
1.09862e-06
1.10044e-06
1.10062e-06
1.10075e-06
1.10157e-06
1.10141e-06
1.10068e-06
1.1007e-06
1.10068e-06
1.10069e-06
1.10071e-06
1.10078e-06
1.10157e-06
1.10146e-06
1.10158e-06
1.10158e-06
1.10158e-06
1.10158e-06
1.0911e-06
1.09016e-06
1.09009e-06
1.09014e-06
1.09107e-06
1.09114e-06
1.09114e-06
1.0903e-06
1.0898e-06
1.08832e-06
1.08832e-06
1.08832e-06
1.08995e-06
1.0903e-06
1.0911e-06
1.0903e-06
1.08977e-06
1.08832e-06
1.08832e-06
1.08832e-06
1.08832e-06
1.08832e-06
1.08992e-06
1.09029e-06
1.09111e-06
1.0911e-06
1.0898e-06
1.08832e-06
1.08832e-06
1.08832e-06
1.08832e-06
1.08832e-06
1.08832e-06
1.08832e-06
1.08995e-06
1.09038e-06
1.09116e-06
1.09016e-06
1.08832e-06
1.08832e-06
1.08832e-06
1.08832e-06
1.08832e-06
1.08832e-06
1.08832e-06
1.08832e-06
1.08832e-06
1.0904e-06
1.09128e-06
1.09009e-06
1.08832e-06
1.08832e-06
1.08832e-06
1.08832e-06
1.08832e-06
1.08832e-06
1.08832e-06
1.08832e-06
1.08832e-06
1.09038e-06
1.09128e-06
1.09014e-06
1.08832e-06
1.08832e-06
1.08832e-06
1.08832e-06
1.08832e-06
1.08832e-06
1.08832e-06
1.08832e-06
1.08832e-06
1.09039e-06
1.09128e-06
1.09107e-06
1.08995e-06
1.08832e-06
1.08832e-06
1.08832e-06
1.08832e-06
1.08832e-06
1.08832e-06
1.08832e-06
1.09014e-06
1.09041e-06
1.09128e-06
1.09114e-06
1.0903e-06
1.08992e-06
1.08832e-06
1.08832e-06
1.08832e-06
1.08832e-06
1.08832e-06
1.09011e-06
1.09032e-06
1.09048e-06
1.0911e-06
1.09029e-06
1.08995e-06
1.08832e-06
1.08832e-06
1.08832e-06
1.09014e-06
1.09032e-06
1.09045e-06
1.09127e-06
1.09111e-06
1.09038e-06
1.0904e-06
1.09038e-06
1.09039e-06
1.09041e-06
1.09048e-06
1.09127e-06
1.09116e-06
1.09128e-06
1.09128e-06
1.09128e-06
1.09128e-06
1.0808e-06
1.07986e-06
1.07979e-06
1.07984e-06
1.08077e-06
1.08084e-06
1.08084e-06
1.07999e-06
1.0795e-06
1.07802e-06
1.07802e-06
1.07802e-06
1.07964e-06
1.08e-06
1.0808e-06
1.07999e-06
1.07947e-06
1.07802e-06
1.07802e-06
1.07802e-06
1.07802e-06
1.07802e-06
1.07962e-06
1.07999e-06
1.08081e-06
1.0808e-06
1.0795e-06
1.07802e-06
1.07802e-06
1.07802e-06
1.07802e-06
1.07802e-06
1.07802e-06
1.07802e-06
1.07964e-06
1.08008e-06
1.08086e-06
1.07986e-06
1.07802e-06
1.07802e-06
1.07802e-06
1.07802e-06
1.07802e-06
1.07802e-06
1.07802e-06
1.07802e-06
1.07802e-06
1.0801e-06
1.08098e-06
1.07979e-06
1.07802e-06
1.07802e-06
1.07802e-06
1.07802e-06
1.07802e-06
1.07802e-06
1.07802e-06
1.07802e-06
1.07802e-06
1.08008e-06
1.08098e-06
1.07984e-06
1.07802e-06
1.07802e-06
1.07802e-06
1.07802e-06
1.07802e-06
1.07802e-06
1.07802e-06
1.07802e-06
1.07802e-06
1.08009e-06
1.08098e-06
1.08077e-06
1.07964e-06
1.07802e-06
1.07802e-06
1.07802e-06
1.07802e-06
1.07802e-06
1.07802e-06
1.07802e-06
1.07984e-06
1.08011e-06
1.08098e-06
1.08084e-06
1.08e-06
1.07962e-06
1.07802e-06
1.07802e-06
1.07802e-06
1.07802e-06
1.07802e-06
1.07981e-06
1.08002e-06
1.08018e-06
1.0808e-06
1.07999e-06
1.07964e-06
1.07802e-06
1.07802e-06
1.07802e-06
1.07984e-06
1.08002e-06
1.08015e-06
1.08097e-06
1.08081e-06
1.08008e-06
1.0801e-06
1.08008e-06
1.08009e-06
1.08011e-06
1.08018e-06
1.08097e-06
1.08086e-06
1.08098e-06
1.08098e-06
1.08098e-06
1.08098e-06
1.0705e-06
1.06956e-06
1.06949e-06
1.06954e-06
1.07047e-06
1.07053e-06
1.07054e-06
1.06969e-06
1.0692e-06
1.06772e-06
1.06772e-06
1.06772e-06
1.06934e-06
1.06969e-06
1.0705e-06
1.06969e-06
1.06916e-06
1.06772e-06
1.06772e-06
1.06772e-06
1.06772e-06
1.06772e-06
1.06932e-06
1.06969e-06
1.07051e-06
1.0705e-06
1.0692e-06
1.06772e-06
1.06772e-06
1.06772e-06
1.06772e-06
1.06772e-06
1.06772e-06
1.06772e-06
1.06934e-06
1.06978e-06
1.07056e-06
1.06956e-06
1.06772e-06
1.06772e-06
1.06772e-06
1.06772e-06
1.06772e-06
1.06772e-06
1.06772e-06
1.06772e-06
1.06772e-06
1.0698e-06
1.07068e-06
1.06949e-06
1.06772e-06
1.06772e-06
1.06772e-06
1.06772e-06
1.06772e-06
1.06772e-06
1.06772e-06
1.06772e-06
1.06772e-06
1.06978e-06
1.07067e-06
1.06954e-06
1.06772e-06
1.06772e-06
1.06772e-06
1.06772e-06
1.06772e-06
1.06772e-06
1.06772e-06
1.06772e-06
1.06772e-06
1.06979e-06
1.07068e-06
1.07047e-06
1.06934e-06
1.06772e-06
1.06772e-06
1.06772e-06
1.06772e-06
1.06772e-06
1.06772e-06
1.06772e-06
1.06954e-06
1.06981e-06
1.07068e-06
1.07053e-06
1.06969e-06
1.06932e-06
1.06772e-06
1.06772e-06
1.06772e-06
1.06772e-06
1.06772e-06
1.06951e-06
1.06972e-06
1.06987e-06
1.0705e-06
1.06969e-06
1.06934e-06
1.06772e-06
1.06772e-06
1.06772e-06
1.06954e-06
1.06972e-06
1.06985e-06
1.07067e-06
1.07051e-06
1.06978e-06
1.0698e-06
1.06978e-06
1.06979e-06
1.06981e-06
1.06987e-06
1.07067e-06
1.07056e-06
1.07068e-06
1.07067e-06
1.07068e-06
1.07068e-06
1.0602e-06
1.05926e-06
1.05919e-06
1.05924e-06
1.06017e-06
1.06023e-06
1.06024e-06
1.05939e-06
1.0589e-06
1.05741e-06
1.05741e-06
1.05741e-06
1.05904e-06
1.05939e-06
1.0602e-06
1.05939e-06
1.05886e-06
1.05741e-06
1.05742e-06
1.05741e-06
1.05742e-06
1.05741e-06
1.05902e-06
1.05939e-06
1.06021e-06
1.0602e-06
1.0589e-06
1.05741e-06
1.05741e-06
1.05741e-06
1.05741e-06
1.05741e-06
1.05741e-06
1.05741e-06
1.05904e-06
1.05947e-06
1.06026e-06
1.05926e-06
1.05741e-06
1.05742e-06
1.05741e-06
1.05741e-06
1.05741e-06
1.05741e-06
1.05741e-06
1.05742e-06
1.05741e-06
1.0595e-06
1.06037e-06
1.05919e-06
1.05741e-06
1.05741e-06
1.05741e-06
1.05741e-06
1.05741e-06
1.05741e-06
1.05741e-06
1.05741e-06
1.05741e-06
1.05948e-06
1.06037e-06
1.05924e-06
1.05741e-06
1.05742e-06
1.05741e-06
1.05742e-06
1.05741e-06
1.05742e-06
1.05741e-06
1.05742e-06
1.05741e-06
1.05948e-06
1.06038e-06
1.06017e-06
1.05904e-06
1.05741e-06
1.05741e-06
1.05741e-06
1.05741e-06
1.05741e-06
1.05741e-06
1.05741e-06
1.05924e-06
1.05951e-06
1.06038e-06
1.06023e-06
1.05939e-06
1.05902e-06
1.05741e-06
1.05742e-06
1.05741e-06
1.05742e-06
1.05741e-06
1.05921e-06
1.05942e-06
1.05957e-06
1.0602e-06
1.05939e-06
1.05904e-06
1.05741e-06
1.05741e-06
1.05741e-06
1.05924e-06
1.05942e-06
1.05955e-06
1.06037e-06
1.06021e-06
1.05947e-06
1.0595e-06
1.05948e-06
1.05948e-06
1.05951e-06
1.05957e-06
1.06037e-06
1.06026e-06
1.06037e-06
1.06037e-06
1.06038e-06
1.06038e-06
1.0499e-06
1.04896e-06
1.04889e-06
1.04894e-06
1.04987e-06
1.04993e-06
1.04994e-06
1.04909e-06
1.0486e-06
1.04711e-06
1.04711e-06
1.04711e-06
1.04874e-06
1.04909e-06
1.0499e-06
1.04909e-06
1.04856e-06
1.04711e-06
1.04711e-06
1.04711e-06
1.04711e-06
1.04711e-06
1.04872e-06
1.04909e-06
1.0499e-06
1.0499e-06
1.0486e-06
1.04711e-06
1.04711e-06
1.04711e-06
1.04711e-06
1.04711e-06
1.04711e-06
1.04711e-06
1.04874e-06
1.04917e-06
1.04996e-06
1.04896e-06
1.04711e-06
1.04711e-06
1.04711e-06
1.04711e-06
1.04711e-06
1.04711e-06
1.04711e-06
1.04711e-06
1.04711e-06
1.04919e-06
1.05007e-06
1.04889e-06
1.04711e-06
1.04711e-06
1.04711e-06
1.04711e-06
1.04711e-06
1.04711e-06
1.04711e-06
1.04711e-06
1.04711e-06
1.04917e-06
1.05007e-06
1.04894e-06
1.04711e-06
1.04711e-06
1.04711e-06
1.04711e-06
1.04711e-06
1.04711e-06
1.04711e-06
1.04711e-06
1.04711e-06
1.04918e-06
1.05007e-06
1.04987e-06
1.04874e-06
1.04711e-06
1.04711e-06
1.04711e-06
1.04711e-06
1.04711e-06
1.04711e-06
1.04711e-06
1.04894e-06
1.04921e-06
1.05008e-06
1.04993e-06
1.04909e-06
1.04872e-06
1.04711e-06
1.04711e-06
1.04711e-06
1.04711e-06
1.04711e-06
1.0489e-06
1.04912e-06
1.04927e-06
1.0499e-06
1.04909e-06
1.04874e-06
1.04711e-06
1.04711e-06
1.04711e-06
1.04894e-06
1.04912e-06
1.04925e-06
1.05007e-06
1.0499e-06
1.04917e-06
1.04919e-06
1.04917e-06
1.04918e-06
1.04921e-06
1.04927e-06
1.05007e-06
1.04996e-06
1.05007e-06
1.05007e-06
1.05007e-06
1.05008e-06
1.0396e-06
1.03866e-06
1.03858e-06
1.03863e-06
1.03957e-06
1.03963e-06
1.03964e-06
1.03879e-06
1.03829e-06
1.03681e-06
1.03681e-06
1.03681e-06
1.03844e-06
1.03879e-06
1.0396e-06
1.03879e-06
1.03826e-06
1.03681e-06
1.03681e-06
1.03681e-06
1.03681e-06
1.03681e-06
1.03841e-06
1.03879e-06
1.0396e-06
1.0396e-06
1.03829e-06
1.03681e-06
1.03681e-06
1.03681e-06
1.03681e-06
1.03681e-06
1.03681e-06
1.03681e-06
1.03844e-06
1.03887e-06
1.03965e-06
1.03866e-06
1.03681e-06
1.03681e-06
1.03681e-06
1.03681e-06
1.03681e-06
1.03681e-06
1.03681e-06
1.03681e-06
1.03681e-06
1.03889e-06
1.03977e-06
1.03858e-06
1.03681e-06
1.03681e-06
1.03681e-06
1.03681e-06
1.03681e-06
1.03681e-06
1.03681e-06
1.03681e-06
1.03681e-06
1.03887e-06
1.03977e-06
1.03863e-06
1.03681e-06
1.03681e-06
1.03681e-06
1.03681e-06
1.03681e-06
1.03681e-06
1.03681e-06
1.03681e-06
1.03681e-06
1.03888e-06
1.03977e-06
1.03957e-06
1.03844e-06
1.03681e-06
1.03681e-06
1.03681e-06
1.03681e-06
1.03681e-06
1.03681e-06
1.03681e-06
1.03864e-06
1.0389e-06
1.03978e-06
1.03963e-06
1.03879e-06
1.03841e-06
1.03681e-06
1.03681e-06
1.03681e-06
1.03681e-06
1.03681e-06
1.0386e-06
1.03882e-06
1.03897e-06
1.0396e-06
1.03879e-06
1.03844e-06
1.03681e-06
1.03681e-06
1.03681e-06
1.03864e-06
1.03882e-06
1.03894e-06
1.03976e-06
1.0396e-06
1.03887e-06
1.03889e-06
1.03887e-06
1.03888e-06
1.0389e-06
1.03897e-06
1.03976e-06
1.03965e-06
1.03977e-06
1.03977e-06
1.03977e-06
1.03978e-06
1.0293e-06
1.02835e-06
1.02828e-06
1.02833e-06
1.02927e-06
1.02933e-06
1.02933e-06
1.02849e-06
1.02799e-06
1.02651e-06
1.02651e-06
1.02651e-06
1.02814e-06
1.02849e-06
1.0293e-06
1.02849e-06
1.02796e-06
1.02651e-06
1.02651e-06
1.02651e-06
1.02651e-06
1.02651e-06
1.02811e-06
1.02849e-06
1.0293e-06
1.0293e-06
1.02799e-06
1.02651e-06
1.02651e-06
1.02651e-06
1.02651e-06
1.02651e-06
1.02651e-06
1.02651e-06
1.02814e-06
1.02857e-06
1.02935e-06
1.02835e-06
1.02651e-06
1.02651e-06
1.02651e-06
1.02651e-06
1.02651e-06
1.02651e-06
1.02651e-06
1.02651e-06
1.02651e-06
1.02859e-06
1.02947e-06
1.02828e-06
1.02651e-06
1.02651e-06
1.02651e-06
1.02651e-06
1.02651e-06
1.02651e-06
1.02651e-06
1.02651e-06
1.02651e-06
1.02857e-06
1.02947e-06
1.02833e-06
1.02651e-06
1.02651e-06
1.02651e-06
1.02651e-06
1.02651e-06
1.02651e-06
1.02651e-06
1.02651e-06
1.02651e-06
1.02858e-06
1.02947e-06
1.02927e-06
1.02814e-06
1.02651e-06
1.02651e-06
1.02651e-06
1.02651e-06
1.02651e-06
1.02651e-06
1.02651e-06
1.02834e-06
1.0286e-06
1.02948e-06
1.02933e-06
1.02849e-06
1.02811e-06
1.02651e-06
1.02651e-06
1.02651e-06
1.02651e-06
1.02651e-06
1.0283e-06
1.02852e-06
1.02867e-06
1.0293e-06
1.02849e-06
1.02814e-06
1.02651e-06
1.02651e-06
1.02651e-06
1.02834e-06
1.02852e-06
1.02864e-06
1.02946e-06
1.0293e-06
1.02857e-06
1.02859e-06
1.02857e-06
1.02858e-06
1.0286e-06
1.02867e-06
1.02946e-06
1.02935e-06
1.02947e-06
1.02947e-06
1.02947e-06
1.02948e-06
1.019e-06
1.01805e-06
1.01798e-06
1.01803e-06
1.01896e-06
1.01903e-06
1.01903e-06
1.01819e-06
1.01769e-06
1.01621e-06
1.01621e-06
1.01621e-06
1.01784e-06
1.01819e-06
1.019e-06
1.01819e-06
1.01766e-06
1.01621e-06
1.01621e-06
1.01621e-06
1.01621e-06
1.01621e-06
1.01781e-06
1.01819e-06
1.019e-06
1.019e-06
1.01769e-06
1.01621e-06
1.01621e-06
1.01621e-06
1.01621e-06
1.01621e-06
1.01621e-06
1.01621e-06
1.01784e-06
1.01827e-06
1.01905e-06
1.01805e-06
1.01621e-06
1.01621e-06
1.01621e-06
1.01621e-06
1.01621e-06
1.01621e-06
1.01621e-06
1.01621e-06
1.01621e-06
1.01829e-06
1.01917e-06
1.01798e-06
1.01621e-06
1.01621e-06
1.01621e-06
1.01621e-06
1.01621e-06
1.01621e-06
1.01621e-06
1.01621e-06
1.01621e-06
1.01827e-06
1.01917e-06
1.01803e-06
1.01621e-06
1.01621e-06
1.01621e-06