/*--------------------------------*- C++ -*----------------------------------*\
| =========                 |                                                 |
| \\      /  F ield         | OpenFOAM: The Open Source CFD Toolbox           |
|  \\    /   O peration     | Version:  v2012                                 |
|   \\  /    A nd           | Website:  www.openfoam.com                      |
|    \\/     M anipulation  |                                                 |
\*---------------------------------------------------------------------------*/
FoamFile
{
    version     2.0;
    format      ascii;
    class       volScalarField;
    location    "43";
    object      p;
}
// * * * * * * * * * * * * * * * * * * * * * * * * * * * * * * * * * * * * * //

dimensions      [0 2 -2 0 0 0 0];


internalField   nonuniform List<scalar> 
292667
(
1.2621e-06
1.25239e-06
1.25159e-06
1.25166e-06
1.25277e-06
1.26303e-06
1.2526e-06
1.24979e-06
1.24815e-06
1.24748e-06
1.24757e-06
1.24844e-06
1.25033e-06
1.25341e-06
1.2526e-06
1.24896e-06
1.2467e-06
1.24547e-06
1.24494e-06
1.24501e-06
1.24569e-06
1.24713e-06
1.24968e-06
1.25365e-06
1.2621e-06
1.24979e-06
1.2467e-06
1.24488e-06
1.24386e-06
1.24342e-06
1.24348e-06
1.24405e-06
1.24524e-06
1.24731e-06
1.25077e-06
1.26184e-06
1.25239e-06
1.24815e-06
1.24546e-06
1.24386e-06
1.24295e-06
1.24256e-06
1.24261e-06
1.24312e-06
1.24418e-06
1.246e-06
1.24905e-06
1.25623e-06
1.25159e-06
1.24748e-06
1.24494e-06
1.24342e-06
1.24256e-06
1.24218e-06
1.24223e-06
1.24272e-06
1.24373e-06
1.24546e-06
1.24835e-06
1.25448e-06
1.25166e-06
1.24756e-06
1.24501e-06
1.24348e-06
1.24261e-06
1.24223e-06
1.24229e-06
1.24278e-06
1.24379e-06
1.24553e-06
1.24845e-06
1.25481e-06
1.25277e-06
1.24844e-06
1.24569e-06
1.24405e-06
1.24312e-06
1.24272e-06
1.24278e-06
1.2433e-06
1.24438e-06
1.24625e-06
1.24939e-06
1.25656e-06
1.26303e-06
1.25033e-06
1.24713e-06
1.24524e-06
1.24418e-06
1.24373e-06
1.24379e-06
1.24438e-06
1.24562e-06
1.24779e-06
1.25138e-06
1.26178e-06
1.25341e-06
1.24968e-06
1.24731e-06
1.246e-06
1.24546e-06
1.24553e-06
1.24625e-06
1.24779e-06
1.25049e-06
1.25716e-06
1.25365e-06
1.25077e-06
1.24905e-06
1.24835e-06
1.24845e-06
1.24939e-06
1.25138e-06
1.25716e-06
1.26184e-06
1.25623e-06
1.25448e-06
1.25481e-06
1.25656e-06
1.26178e-06
1.2344e-06
1.23345e-06
1.23342e-06
1.23345e-06
1.23435e-06
1.23426e-06
1.23447e-06
1.23371e-06
1.2333e-06
1.23179e-06
1.23177e-06
1.23179e-06
1.23345e-06
1.23373e-06
1.23446e-06
1.23371e-06
1.23331e-06
1.23184e-06
1.23177e-06
1.23182e-06
1.23177e-06
1.23184e-06
1.23343e-06
1.2337e-06
1.23443e-06
1.2344e-06
1.2333e-06
1.23184e-06
1.23177e-06
1.23181e-06
1.2318e-06
1.23181e-06
1.23177e-06
1.23184e-06
1.23342e-06
1.23372e-06
1.23451e-06
1.23345e-06
1.23179e-06
1.23177e-06
1.23181e-06
1.23177e-06
1.23177e-06
1.23177e-06
1.23181e-06
1.23177e-06
1.23179e-06
1.23384e-06
1.23462e-06
1.23341e-06
1.23177e-06
1.23182e-06
1.2318e-06
1.23177e-06
1.23177e-06
1.23177e-06
1.2318e-06
1.23182e-06
1.23177e-06
1.23385e-06
1.23449e-06
1.23345e-06
1.23179e-06
1.23177e-06
1.23181e-06
1.23177e-06
1.23177e-06
1.23177e-06
1.23181e-06
1.23177e-06
1.23179e-06
1.23386e-06
1.23453e-06
1.23435e-06
1.23345e-06
1.23184e-06
1.23177e-06
1.23181e-06
1.2318e-06
1.23181e-06
1.23177e-06
1.23184e-06
1.23357e-06
1.23376e-06
1.23459e-06
1.23426e-06
1.23373e-06
1.23343e-06
1.23184e-06
1.23177e-06
1.23182e-06
1.23177e-06
1.23184e-06
1.23354e-06
1.23373e-06
1.23376e-06
1.23446e-06
1.2337e-06
1.23342e-06
1.23179e-06
1.23177e-06
1.23179e-06
1.23357e-06
1.23373e-06
1.23383e-06
1.23457e-06
1.23443e-06
1.23372e-06
1.23384e-06
1.23385e-06
1.23386e-06
1.23376e-06
1.23376e-06
1.23458e-06
1.23451e-06
1.23462e-06
1.23449e-06
1.23453e-06
1.23459e-06
1.22389e-06
1.22294e-06
1.22288e-06
1.22293e-06
1.22386e-06
1.22392e-06
1.22393e-06
1.22309e-06
1.22263e-06
1.22114e-06
1.22114e-06
1.22114e-06
1.22278e-06
1.22311e-06
1.22389e-06
1.22309e-06
1.22262e-06
1.2212e-06
1.22119e-06
1.22123e-06
1.22119e-06
1.2212e-06
1.22278e-06
1.2231e-06
1.22389e-06
1.22389e-06
1.22263e-06
1.2212e-06
1.22121e-06
1.22127e-06
1.22127e-06
1.22127e-06
1.22121e-06
1.2212e-06
1.22278e-06
1.22316e-06
1.22395e-06
1.22294e-06
1.22114e-06
1.22119e-06
1.22127e-06
1.22128e-06
1.2213e-06
1.22128e-06
1.22127e-06
1.22119e-06
1.22115e-06
1.22319e-06
1.22406e-06
1.22288e-06
1.22114e-06
1.22123e-06
1.22127e-06
1.2213e-06
1.2213e-06
1.2213e-06
1.22127e-06
1.22123e-06
1.22114e-06
1.22319e-06
1.22406e-06
1.22293e-06
1.22114e-06
1.22119e-06
1.22127e-06
1.22128e-06
1.2213e-06
1.22128e-06
1.22127e-06
1.22119e-06
1.22114e-06
1.22319e-06
1.22406e-06
1.22386e-06
1.22278e-06
1.2212e-06
1.22121e-06
1.22127e-06
1.22127e-06
1.22127e-06
1.22121e-06
1.2212e-06
1.22296e-06
1.22319e-06
1.22407e-06
1.22392e-06
1.22311e-06
1.22278e-06
1.2212e-06
1.22119e-06
1.22123e-06
1.22119e-06
1.2212e-06
1.22294e-06
1.22312e-06
1.22324e-06
1.22389e-06
1.2231e-06
1.22278e-06
1.22114e-06
1.22114e-06
1.22114e-06
1.22296e-06
1.22312e-06
1.22322e-06
1.22405e-06
1.22389e-06
1.22316e-06
1.22319e-06
1.22319e-06
1.22319e-06
1.22319e-06
1.22324e-06
1.22405e-06
1.22395e-06
1.22406e-06
1.22406e-06
1.22406e-06
1.22407e-06
1.21343e-06
1.21247e-06
1.2124e-06
1.21245e-06
1.2134e-06
1.21346e-06
1.21347e-06
1.21261e-06
1.21212e-06
1.21062e-06
1.21062e-06
1.21062e-06
1.21227e-06
1.21262e-06
1.21343e-06
1.21261e-06
1.2121e-06
1.21065e-06
1.21066e-06
1.21068e-06
1.21066e-06
1.21065e-06
1.21226e-06
1.21261e-06
1.21343e-06
1.21343e-06
1.21213e-06
1.21065e-06
1.21068e-06
1.21071e-06
1.21072e-06
1.21071e-06
1.21068e-06
1.21065e-06
1.21227e-06
1.21269e-06
1.21349e-06
1.21247e-06
1.21062e-06
1.21066e-06
1.21071e-06
1.21073e-06
1.21075e-06
1.21073e-06
1.21071e-06
1.21066e-06
1.21062e-06
1.21271e-06
1.2136e-06
1.2124e-06
1.21062e-06
1.21068e-06
1.21072e-06
1.21075e-06
1.21075e-06
1.21075e-06
1.21072e-06
1.21068e-06
1.21062e-06
1.2127e-06
1.2136e-06
1.21245e-06
1.21062e-06
1.21066e-06
1.21071e-06
1.21073e-06
1.21075e-06
1.21073e-06
1.21071e-06
1.21066e-06
1.21062e-06
1.2127e-06
1.2136e-06
1.2134e-06
1.21227e-06
1.21065e-06
1.21068e-06
1.21071e-06
1.21072e-06
1.21071e-06
1.21068e-06
1.21065e-06
1.21246e-06
1.21272e-06
1.21361e-06
1.21346e-06
1.21262e-06
1.21226e-06
1.21065e-06
1.21066e-06
1.21068e-06
1.21066e-06
1.21065e-06
1.21244e-06
1.21264e-06
1.21278e-06
1.21343e-06
1.21261e-06
1.21227e-06
1.21062e-06
1.21062e-06
1.21062e-06
1.21246e-06
1.21264e-06
1.21276e-06
1.21359e-06
1.21343e-06
1.21269e-06
1.21271e-06
1.2127e-06
1.2127e-06
1.21272e-06
1.21278e-06
1.21359e-06
1.21349e-06
1.2136e-06
1.2136e-06
1.2136e-06
1.21361e-06
1.20297e-06
1.20201e-06
1.20194e-06
1.20198e-06
1.20293e-06
1.203e-06
1.20301e-06
1.20214e-06
1.20165e-06
1.20014e-06
1.20014e-06
1.20014e-06
1.20179e-06
1.20214e-06
1.20297e-06
1.20214e-06
1.20162e-06
1.20015e-06
1.20016e-06
1.20017e-06
1.20016e-06
1.20015e-06
1.20177e-06
1.20214e-06
1.20297e-06
1.20297e-06
1.20165e-06
1.20015e-06
1.20017e-06
1.20019e-06
1.20019e-06
1.20019e-06
1.20017e-06
1.20015e-06
1.20179e-06
1.20222e-06
1.20303e-06
1.20201e-06
1.20014e-06
1.20016e-06
1.20019e-06
1.20021e-06
1.20022e-06
1.20021e-06
1.20019e-06
1.20016e-06
1.20014e-06
1.20224e-06
1.20314e-06
1.20194e-06
1.20014e-06
1.20017e-06
1.20019e-06
1.20022e-06
1.20022e-06
1.20022e-06
1.20019e-06
1.20017e-06
1.20014e-06
1.20222e-06
1.20314e-06
1.20198e-06
1.20014e-06
1.20016e-06
1.20019e-06
1.20021e-06
1.20022e-06
1.20021e-06
1.20019e-06
1.20016e-06
1.20014e-06
1.20223e-06
1.20314e-06
1.20293e-06
1.20179e-06
1.20015e-06
1.20017e-06
1.20019e-06
1.20019e-06
1.20019e-06
1.20017e-06
1.20015e-06
1.20199e-06
1.20225e-06
1.20315e-06
1.203e-06
1.20214e-06
1.20177e-06
1.20015e-06
1.20016e-06
1.20017e-06
1.20016e-06
1.20015e-06
1.20195e-06
1.20217e-06
1.20232e-06
1.20297e-06
1.20214e-06
1.20179e-06
1.20014e-06
1.20014e-06
1.20014e-06
1.20199e-06
1.20217e-06
1.20229e-06
1.20313e-06
1.20297e-06
1.20222e-06
1.20224e-06
1.20222e-06
1.20223e-06
1.20225e-06
1.20232e-06
1.20313e-06
1.20303e-06
1.20314e-06
1.20314e-06
1.20314e-06
1.20315e-06
1.1925e-06
1.19154e-06
1.19147e-06
1.19152e-06
1.19247e-06
1.19254e-06
1.19254e-06
1.19168e-06
1.19118e-06
1.18966e-06
1.18966e-06
1.18966e-06
1.19132e-06
1.19168e-06
1.1925e-06
1.19168e-06
1.19115e-06
1.18967e-06
1.18968e-06
1.18968e-06
1.18968e-06
1.18967e-06
1.1913e-06
1.19167e-06
1.19251e-06
1.1925e-06
1.19118e-06
1.18967e-06
1.18968e-06
1.18969e-06
1.18969e-06
1.18969e-06
1.18968e-06
1.18967e-06
1.19132e-06
1.19176e-06
1.19256e-06
1.19154e-06
1.18966e-06
1.18968e-06
1.18969e-06
1.1897e-06
1.18971e-06
1.1897e-06
1.18969e-06
1.18968e-06
1.18966e-06
1.19177e-06
1.19268e-06
1.19147e-06
1.18966e-06
1.18968e-06
1.18969e-06
1.18971e-06
1.18971e-06
1.18971e-06
1.18969e-06
1.18968e-06
1.18966e-06
1.19175e-06
1.19267e-06
1.19152e-06
1.18966e-06
1.18968e-06
1.18969e-06
1.1897e-06
1.18971e-06
1.1897e-06
1.18969e-06
1.18968e-06
1.18966e-06
1.19176e-06
1.19267e-06
1.19247e-06
1.19132e-06
1.18967e-06
1.18968e-06
1.18969e-06
1.18969e-06
1.18969e-06
1.18968e-06
1.18967e-06
1.19152e-06
1.19179e-06
1.19268e-06
1.19254e-06
1.19168e-06
1.1913e-06
1.18967e-06
1.18968e-06
1.18968e-06
1.18968e-06
1.18967e-06
1.19148e-06
1.1917e-06
1.19185e-06
1.1925e-06
1.19167e-06
1.19132e-06
1.18966e-06
1.18966e-06
1.18966e-06
1.19152e-06
1.1917e-06
1.19183e-06
1.19267e-06
1.19251e-06
1.19176e-06
1.19177e-06
1.19175e-06
1.19176e-06
1.19179e-06
1.19185e-06
1.19267e-06
1.19256e-06
1.19268e-06
1.19267e-06
1.19267e-06
1.19268e-06
1.18204e-06
1.18107e-06
1.181e-06
1.18105e-06
1.182e-06
1.18207e-06
1.18208e-06
1.18121e-06
1.18071e-06
1.17919e-06
1.17919e-06
1.17919e-06
1.18085e-06
1.18121e-06
1.18204e-06
1.18121e-06
1.18068e-06
1.17919e-06
1.1792e-06
1.1792e-06
1.1792e-06
1.17919e-06
1.18083e-06
1.18121e-06
1.18204e-06
1.18204e-06
1.18071e-06
1.17919e-06
1.1792e-06
1.17921e-06
1.17921e-06
1.17921e-06
1.1792e-06
1.17919e-06
1.18085e-06
1.18129e-06
1.1821e-06
1.18107e-06
1.17919e-06
1.1792e-06
1.17921e-06
1.17921e-06
1.17922e-06
1.17921e-06
1.17921e-06
1.1792e-06
1.17919e-06
1.18131e-06
1.18221e-06
1.181e-06
1.17919e-06
1.1792e-06
1.17921e-06
1.17922e-06
1.17922e-06
1.17922e-06
1.17921e-06
1.1792e-06
1.17919e-06
1.18129e-06
1.18221e-06
1.18105e-06
1.17919e-06
1.1792e-06
1.17921e-06
1.17921e-06
1.17922e-06
1.17921e-06
1.17921e-06
1.1792e-06
1.17919e-06
1.18129e-06
1.18221e-06
1.182e-06
1.18085e-06
1.17919e-06
1.1792e-06
1.17921e-06
1.17921e-06
1.17921e-06
1.1792e-06
1.17919e-06
1.18105e-06
1.18132e-06
1.18222e-06
1.18207e-06
1.18121e-06
1.18083e-06
1.17919e-06
1.1792e-06
1.1792e-06
1.1792e-06
1.17919e-06
1.18101e-06
1.18123e-06
1.18139e-06
1.18204e-06
1.18121e-06
1.18085e-06
1.17919e-06
1.17919e-06
1.17919e-06
1.18105e-06
1.18123e-06
1.18136e-06
1.1822e-06
1.18204e-06
1.18129e-06
1.18131e-06
1.18129e-06
1.18129e-06
1.18132e-06
1.18139e-06
1.1822e-06
1.1821e-06
1.18221e-06
1.18221e-06
1.18221e-06
1.18222e-06
1.17157e-06
1.17061e-06
1.17053e-06
1.17058e-06
1.17154e-06
1.1716e-06
1.17161e-06
1.17074e-06
1.17024e-06
1.16872e-06
1.16872e-06
1.16872e-06
1.17038e-06
1.17074e-06
1.17157e-06
1.17074e-06
1.17021e-06
1.16872e-06
1.16873e-06
1.16873e-06
1.16873e-06
1.16872e-06
1.17036e-06
1.17074e-06
1.17157e-06
1.17157e-06
1.17024e-06
1.16872e-06
1.16873e-06
1.16873e-06
1.16873e-06
1.16873e-06
1.16873e-06
1.16872e-06
1.17038e-06
1.17082e-06
1.17163e-06
1.17061e-06
1.16872e-06
1.16873e-06
1.16873e-06
1.16873e-06
1.16874e-06
1.16873e-06
1.16873e-06
1.16873e-06
1.16872e-06
1.17084e-06
1.17174e-06
1.17053e-06
1.16872e-06
1.16873e-06
1.16873e-06
1.16874e-06
1.16874e-06
1.16874e-06
1.16873e-06
1.16873e-06
1.16872e-06
1.17082e-06
1.17174e-06
1.17058e-06
1.16872e-06
1.16873e-06
1.16873e-06
1.16873e-06
1.16874e-06
1.16873e-06
1.16873e-06
1.16873e-06
1.16872e-06
1.17083e-06
1.17174e-06
1.17154e-06
1.17038e-06
1.16872e-06
1.16873e-06
1.16873e-06
1.16873e-06
1.16873e-06
1.16873e-06
1.16872e-06
1.17058e-06
1.17085e-06
1.17175e-06
1.1716e-06
1.17074e-06
1.17036e-06
1.16872e-06
1.16873e-06
1.16873e-06
1.16873e-06
1.16872e-06
1.17054e-06
1.17076e-06
1.17092e-06
1.17157e-06
1.17074e-06
1.17038e-06
1.16872e-06
1.16872e-06
1.16872e-06
1.17058e-06
1.17076e-06
1.17089e-06
1.17174e-06
1.17157e-06
1.17082e-06
1.17084e-06
1.17082e-06
1.17083e-06
1.17085e-06
1.17092e-06
1.17174e-06
1.17163e-06
1.17174e-06
1.17174e-06
1.17174e-06
1.17175e-06
1.1611e-06
1.16014e-06
1.16007e-06
1.16012e-06
1.16107e-06
1.16114e-06
1.16114e-06
1.16027e-06
1.15977e-06
1.15825e-06
1.15825e-06
1.15825e-06
1.15992e-06
1.16027e-06
1.1611e-06
1.16027e-06
1.15974e-06
1.15825e-06
1.15826e-06
1.15826e-06
1.15826e-06
1.15825e-06
1.15989e-06
1.16027e-06
1.16111e-06
1.1611e-06
1.15977e-06
1.15825e-06
1.15826e-06
1.15826e-06
1.15826e-06
1.15826e-06
1.15826e-06
1.15825e-06
1.15992e-06
1.16035e-06
1.16116e-06
1.16014e-06
1.15825e-06
1.15826e-06
1.15826e-06
1.15826e-06
1.15826e-06
1.15826e-06
1.15826e-06
1.15826e-06
1.15825e-06
1.16037e-06
1.16128e-06
1.16007e-06
1.15825e-06
1.15826e-06
1.15826e-06
1.15826e-06
1.15826e-06
1.15826e-06
1.15826e-06
1.15826e-06
1.15825e-06
1.16035e-06
1.16127e-06
1.16012e-06
1.15825e-06
1.15826e-06
1.15826e-06
1.15826e-06
1.15826e-06
1.15826e-06
1.15826e-06
1.15826e-06
1.15825e-06
1.16036e-06
1.16127e-06
1.16107e-06
1.15992e-06
1.15825e-06
1.15826e-06
1.15826e-06
1.15826e-06
1.15826e-06
1.15826e-06
1.15825e-06
1.16011e-06
1.16039e-06
1.16128e-06
1.16114e-06
1.16027e-06
1.15989e-06
1.15825e-06
1.15826e-06
1.15826e-06
1.15826e-06
1.15825e-06
1.16008e-06
1.1603e-06
1.16045e-06
1.1611e-06
1.16027e-06
1.15992e-06
1.15825e-06
1.15825e-06
1.15825e-06
1.16011e-06
1.1603e-06
1.16043e-06
1.16127e-06
1.16111e-06
1.16035e-06
1.16037e-06
1.16035e-06
1.16036e-06
1.16039e-06
1.16045e-06
1.16127e-06
1.16116e-06
1.16128e-06
1.16127e-06
1.16127e-06
1.16128e-06
1.15064e-06
1.14967e-06
1.1496e-06
1.14965e-06
1.1506e-06
1.15067e-06
1.15068e-06
1.14981e-06
1.1493e-06
1.14778e-06
1.14779e-06
1.14778e-06
1.14945e-06
1.14981e-06
1.15063e-06
1.14981e-06
1.14927e-06
1.14779e-06
1.14779e-06
1.14779e-06
1.14779e-06
1.14779e-06
1.14942e-06
1.1498e-06
1.15064e-06
1.15064e-06
1.1493e-06
1.14779e-06
1.14779e-06
1.14779e-06
1.14779e-06
1.14779e-06
1.14779e-06
1.14779e-06
1.14945e-06
1.14989e-06
1.15069e-06
1.14967e-06
1.14778e-06
1.14779e-06
1.14779e-06
1.14779e-06
1.14779e-06
1.14779e-06
1.14779e-06
1.14779e-06
1.14778e-06
1.1499e-06
1.15081e-06
1.1496e-06
1.14779e-06
1.14779e-06
1.14779e-06
1.14779e-06
1.14779e-06
1.14779e-06
1.14779e-06
1.14779e-06
1.14779e-06
1.14988e-06
1.1508e-06
1.14965e-06
1.14778e-06
1.14779e-06
1.14779e-06
1.14779e-06
1.14779e-06
1.14779e-06
1.14779e-06
1.14779e-06
1.14778e-06
1.14989e-06
1.15081e-06
1.1506e-06
1.14945e-06
1.14779e-06
1.14779e-06
1.14779e-06
1.14779e-06
1.14779e-06
1.14779e-06
1.14779e-06
1.14964e-06
1.14992e-06
1.15081e-06
1.15067e-06
1.14981e-06
1.14942e-06
1.14779e-06
1.14779e-06
1.14779e-06
1.14779e-06
1.14779e-06
1.14961e-06
1.14983e-06
1.14999e-06
1.15063e-06
1.1498e-06
1.14945e-06
1.14778e-06
1.14779e-06
1.14778e-06
1.14964e-06
1.14983e-06
1.14996e-06
1.1508e-06
1.15064e-06
1.14989e-06
1.1499e-06
1.14988e-06
1.14989e-06
1.14992e-06
1.14999e-06
1.1508e-06
1.15069e-06
1.15081e-06
1.1508e-06
1.15081e-06
1.15081e-06
1.14017e-06
1.1392e-06
1.13913e-06
1.13918e-06
1.14013e-06
1.1402e-06
1.14021e-06
1.13934e-06
1.13884e-06
1.13732e-06
1.13732e-06
1.13732e-06
1.13898e-06
1.13934e-06
1.14017e-06
1.13934e-06
1.1388e-06
1.13732e-06
1.13732e-06
1.13732e-06
1.13732e-06
1.13732e-06
1.13896e-06
1.13933e-06
1.14017e-06
1.14017e-06
1.13884e-06
1.13732e-06
1.13732e-06
1.13732e-06
1.13732e-06
1.13732e-06
1.13732e-06
1.13732e-06
1.13898e-06
1.13942e-06
1.14023e-06
1.1392e-06
1.13732e-06
1.13732e-06
1.13732e-06
1.13732e-06
1.13732e-06
1.13732e-06
1.13732e-06
1.13732e-06
1.13732e-06
1.13944e-06
1.14034e-06
1.13913e-06
1.13732e-06
1.13732e-06
1.13732e-06
1.13732e-06
1.13732e-06
1.13732e-06
1.13732e-06
1.13732e-06
1.13732e-06
1.13942e-06
1.14034e-06
1.13918e-06
1.13732e-06
1.13732e-06
1.13732e-06
1.13732e-06
1.13732e-06
1.13732e-06
1.13732e-06
1.13732e-06
1.13732e-06
1.13942e-06
1.14034e-06
1.14013e-06
1.13898e-06
1.13732e-06
1.13732e-06
1.13732e-06
1.13732e-06
1.13732e-06
1.13732e-06
1.13732e-06
1.13918e-06
1.13945e-06
1.14035e-06
1.1402e-06
1.13934e-06
1.13896e-06
1.13732e-06
1.13732e-06
1.13732e-06
1.13732e-06
1.13732e-06
1.13914e-06
1.13936e-06
1.13952e-06
1.14017e-06
1.13933e-06
1.13898e-06
1.13732e-06
1.13732e-06
1.13732e-06
1.13918e-06
1.13936e-06
1.13949e-06
1.14033e-06
1.14017e-06
1.13942e-06
1.13944e-06
1.13941e-06
1.13942e-06
1.13945e-06
1.13952e-06
1.14033e-06
1.14023e-06
1.14034e-06
1.14034e-06
1.14034e-06
1.14035e-06
1.1297e-06
1.12874e-06
1.12866e-06
1.12871e-06
1.12967e-06
1.12973e-06
1.12974e-06
1.12887e-06
1.12837e-06
1.12685e-06
1.12685e-06
1.12685e-06
1.12851e-06
1.12887e-06
1.1297e-06
1.12887e-06
1.12834e-06
1.12685e-06
1.12685e-06
1.12685e-06
1.12685e-06
1.12685e-06
1.12849e-06
1.12887e-06
1.1297e-06
1.1297e-06
1.12837e-06
1.12685e-06
1.12685e-06
1.12685e-06
1.12685e-06
1.12685e-06
1.12685e-06
1.12685e-06
1.12851e-06
1.12895e-06
1.12976e-06
1.12874e-06
1.12685e-06
1.12685e-06
1.12685e-06
1.12685e-06
1.12685e-06
1.12685e-06
1.12685e-06
1.12685e-06
1.12685e-06
1.12897e-06
1.12987e-06
1.12866e-06
1.12685e-06
1.12685e-06
1.12685e-06
1.12685e-06
1.12685e-06
1.12685e-06
1.12685e-06
1.12685e-06
1.12685e-06
1.12895e-06
1.12987e-06
1.12871e-06
1.12685e-06
1.12685e-06
1.12685e-06
1.12685e-06
1.12685e-06
1.12685e-06
1.12685e-06
1.12685e-06
1.12685e-06
1.12896e-06
1.12987e-06
1.12967e-06
1.12851e-06
1.12685e-06
1.12685e-06
1.12685e-06
1.12685e-06
1.12685e-06
1.12685e-06
1.12685e-06
1.12871e-06
1.12898e-06
1.12988e-06
1.12973e-06
1.12887e-06
1.12849e-06
1.12685e-06
1.12685e-06
1.12685e-06
1.12685e-06
1.12685e-06
1.12867e-06
1.12889e-06
1.12905e-06
1.1297e-06
1.12887e-06
1.12851e-06
1.12685e-06
1.12685e-06
1.12685e-06
1.12871e-06
1.12889e-06
1.12903e-06
1.12987e-06
1.1297e-06
1.12895e-06
1.12897e-06
1.12895e-06
1.12896e-06
1.12898e-06
1.12905e-06
1.12987e-06
1.12976e-06
1.12987e-06
1.12987e-06
1.12987e-06
1.12988e-06
1.11923e-06
1.11827e-06
1.1182e-06
1.11824e-06
1.1192e-06
1.11927e-06
1.11927e-06
1.1184e-06
1.1179e-06
1.11638e-06
1.11638e-06
1.11638e-06
1.11805e-06
1.1184e-06
1.11923e-06
1.1184e-06
1.11787e-06
1.11638e-06
1.11638e-06
1.11638e-06
1.11638e-06
1.11638e-06
1.11802e-06
1.1184e-06
1.11924e-06
1.11923e-06
1.1179e-06
1.11638e-06
1.11638e-06
1.11638e-06
1.11638e-06
1.11638e-06
1.11638e-06
1.11638e-06
1.11805e-06
1.11848e-06
1.11929e-06
1.11827e-06
1.11638e-06
1.11638e-06
1.11638e-06
1.11638e-06
1.11638e-06
1.11638e-06
1.11638e-06
1.11638e-06
1.11638e-06
1.1185e-06
1.11941e-06
1.1182e-06
1.11638e-06
1.11638e-06
1.11638e-06
1.11638e-06
1.11638e-06
1.11638e-06
1.11638e-06
1.11638e-06
1.11638e-06
1.11848e-06
1.1194e-06
1.11824e-06
1.11638e-06
1.11638e-06
1.11638e-06
1.11638e-06
1.11638e-06
1.11638e-06
1.11638e-06
1.11638e-06
1.11638e-06
1.11849e-06
1.1194e-06
1.1192e-06
1.11805e-06
1.11638e-06
1.11638e-06
1.11638e-06
1.11638e-06
1.11638e-06
1.11638e-06
1.11638e-06
1.11824e-06
1.11852e-06
1.11941e-06
1.11927e-06
1.1184e-06
1.11802e-06
1.11638e-06
1.11638e-06
1.11638e-06
1.11638e-06
1.11638e-06
1.11821e-06
1.11843e-06
1.11858e-06
1.11923e-06
1.1184e-06
1.11805e-06
1.11638e-06
1.11638e-06
1.11638e-06
1.11824e-06
1.11843e-06
1.11856e-06
1.1194e-06
1.11924e-06
1.11848e-06
1.1185e-06
1.11848e-06
1.11849e-06
1.11852e-06
1.11858e-06
1.1194e-06
1.11929e-06
1.11941e-06
1.1194e-06
1.1194e-06
1.11941e-06
1.10877e-06
1.1078e-06
1.10773e-06
1.10778e-06
1.10873e-06
1.1088e-06
1.10881e-06
1.10794e-06
1.10743e-06
1.10591e-06
1.10591e-06
1.10591e-06
1.10758e-06
1.10794e-06
1.10876e-06
1.10794e-06
1.1074e-06
1.10591e-06
1.10592e-06
1.10591e-06
1.10592e-06
1.10591e-06
1.10755e-06
1.10793e-06
1.10877e-06
1.10877e-06
1.10743e-06
1.10591e-06
1.10592e-06
1.10591e-06
1.10591e-06
1.10591e-06
1.10592e-06
1.10591e-06
1.10758e-06
1.10802e-06
1.10882e-06
1.1078e-06
1.10591e-06
1.10592e-06
1.10591e-06
1.10592e-06
1.10592e-06
1.10592e-06
1.10591e-06
1.10592e-06
1.10591e-06
1.10803e-06
1.10894e-06
1.10773e-06
1.10591e-06
1.10591e-06
1.10591e-06
1.10592e-06
1.10592e-06
1.10592e-06
1.10591e-06
1.10591e-06
1.10591e-06
1.10801e-06
1.10893e-06
1.10778e-06
1.10591e-06
1.10592e-06
1.10591e-06
1.10592e-06
1.10592e-06
1.10592e-06
1.10591e-06
1.10592e-06
1.10591e-06
1.10802e-06
1.10894e-06
1.10873e-06
1.10758e-06
1.10591e-06
1.10592e-06
1.10591e-06
1.10591e-06
1.10591e-06
1.10592e-06
1.10591e-06
1.10777e-06
1.10805e-06
1.10894e-06
1.1088e-06
1.10794e-06
1.10755e-06
1.10591e-06
1.10592e-06
1.10591e-06
1.10592e-06
1.10591e-06
1.10774e-06
1.10796e-06
1.10812e-06
1.10876e-06
1.10793e-06
1.10758e-06
1.10591e-06
1.10591e-06
1.10591e-06
1.10777e-06
1.10796e-06
1.10809e-06
1.10893e-06
1.10877e-06
1.10802e-06
1.10803e-06
1.10801e-06
1.10802e-06
1.10805e-06
1.10812e-06
1.10893e-06
1.10882e-06
1.10894e-06
1.10893e-06
1.10894e-06
1.10894e-06
1.0983e-06
1.09733e-06
1.09726e-06
1.09731e-06
1.09826e-06
1.09833e-06
1.09834e-06
1.09747e-06
1.09697e-06
1.09545e-06
1.09545e-06
1.09545e-06
1.09711e-06
1.09747e-06
1.0983e-06
1.09747e-06
1.09693e-06
1.09545e-06
1.09545e-06
1.09545e-06
1.09545e-06
1.09545e-06
1.09709e-06
1.09746e-06
1.0983e-06
1.0983e-06
1.09697e-06
1.09545e-06
1.09545e-06
1.09545e-06
1.09545e-06
1.09545e-06
1.09545e-06
1.09545e-06
1.09711e-06
1.09755e-06
1.09836e-06
1.09733e-06
1.09545e-06
1.09545e-06
1.09545e-06
1.09545e-06
1.09545e-06
1.09545e-06
1.09545e-06
1.09545e-06
1.09545e-06
1.09757e-06
1.09847e-06
1.09726e-06
1.09545e-06
1.09545e-06
1.09545e-06
1.09545e-06
1.09545e-06
1.09545e-06
1.09545e-06
1.09545e-06
1.09545e-06
1.09754e-06
1.09847e-06
1.09731e-06
1.09545e-06
1.09545e-06
1.09545e-06
1.09545e-06
1.09545e-06
1.09545e-06
1.09545e-06
1.09545e-06
1.09545e-06
1.09755e-06
1.09847e-06
1.09826e-06
1.09711e-06
1.09545e-06
1.09545e-06
1.09545e-06
1.09545e-06
1.09545e-06
1.09545e-06
1.09545e-06
1.09731e-06
1.09758e-06
1.09848e-06
1.09833e-06
1.09747e-06
1.09709e-06
1.09545e-06
1.09545e-06
1.09545e-06
1.09545e-06
1.09545e-06
1.09727e-06
1.09749e-06
1.09765e-06
1.0983e-06
1.09746e-06
1.09711e-06
1.09545e-06
1.09545e-06
1.09545e-06
1.09731e-06
1.09749e-06
1.09762e-06
1.09846e-06
1.0983e-06
1.09755e-06
1.09757e-06
1.09754e-06
1.09755e-06
1.09758e-06
1.09765e-06
1.09846e-06
1.09836e-06
1.09847e-06
1.09847e-06
1.09847e-06
1.09848e-06
1.08783e-06
1.08686e-06
1.08679e-06
1.08684e-06
1.0878e-06
1.08786e-06
1.08787e-06
1.087e-06
1.0865e-06
1.08498e-06
1.08498e-06
1.08498e-06
1.08664e-06
1.087e-06
1.08783e-06
1.087e-06
1.08647e-06
1.08498e-06
1.08498e-06
1.08498e-06
1.08498e-06
1.08498e-06
1.08662e-06
1.087e-06
1.08783e-06
1.08783e-06
1.0865e-06
1.08498e-06
1.08498e-06
1.08498e-06
1.08498e-06
1.08498e-06
1.08498e-06
1.08498e-06
1.08664e-06
1.08708e-06
1.08789e-06
1.08686e-06
1.08498e-06
1.08498e-06
1.08498e-06
1.08498e-06
1.08498e-06
1.08498e-06
1.08498e-06
1.08498e-06
1.08498e-06
1.0871e-06
1.088e-06
1.08679e-06
1.08498e-06
1.08498e-06
1.08498e-06
1.08498e-06
1.08498e-06
1.08498e-06
1.08498e-06
1.08498e-06
1.08498e-06
1.08708e-06
1.088e-06
1.08684e-06
1.08498e-06
1.08498e-06
1.08498e-06
1.08498e-06
1.08498e-06
1.08498e-06
1.08498e-06
1.08498e-06
1.08498e-06
1.08709e-06
1.088e-06
1.0878e-06
1.08664e-06
1.08498e-06
1.08498e-06
1.08498e-06
1.08498e-06
1.08498e-06
1.08498e-06
1.08498e-06
1.08684e-06
1.08711e-06
1.08801e-06
1.08786e-06
1.087e-06
1.08662e-06
1.08498e-06
1.08498e-06
1.08498e-06
1.08498e-06
1.08498e-06
1.0868e-06
1.08702e-06
1.08718e-06
1.08783e-06
1.087e-06
1.08664e-06
1.08498e-06
1.08498e-06
1.08498e-06
1.08684e-06
1.08702e-06
1.08716e-06
1.088e-06
1.08783e-06
1.08708e-06
1.0871e-06
1.08708e-06
1.08709e-06
1.08711e-06
1.08718e-06
1.088e-06
1.08789e-06
1.088e-06
1.088e-06
1.088e-06
1.08801e-06
1.07736e-06
1.0764e-06
1.07633e-06
1.07637e-06
1.07733e-06
1.0774e-06
1.0774e-06
1.07653e-06
1.07603e-06
1.07451e-06
1.07451e-06
1.07451e-06
1.07618e-06
1.07653e-06
1.07736e-06
1.07653e-06
1.076e-06
1.07451e-06
1.07451e-06
1.07451e-06
1.07451e-06
1.07451e-06
1.07615e-06
1.07653e-06
1.07737e-06
1.07736e-06
1.07603e-06
1.07451e-06
1.07451e-06
1.07451e-06
1.07451e-06
1.07451e-06
1.07451e-06
1.07451e-06
1.07617e-06
1.07661e-06
1.07742e-06
1.0764e-06
1.07451e-06
1.07451e-06
1.07451e-06
1.07451e-06
1.07451e-06
1.07451e-06
1.07451e-06
1.07451e-06
1.07451e-06
1.07663e-06
1.07754e-06
1.07633e-06
1.07451e-06
1.07451e-06
1.07451e-06
1.07451e-06
1.07451e-06
1.07451e-06
1.07451e-06
1.07451e-06
1.07451e-06
1.07661e-06
1.07753e-06
1.07637e-06
1.07451e-06
1.07451e-06
1.07451e-06
1.07451e-06
1.07451e-06
1.07451e-06
1.07451e-06
1.07451e-06
1.07451e-06
1.07662e-06
1.07753e-06
1.07733e-06
1.07618e-06
1.07451e-06
1.07451e-06
1.07451e-06
1.07451e-06
1.07451e-06
1.07451e-06
1.07451e-06
1.07637e-06
1.07665e-06
1.07754e-06
1.0774e-06
1.07653e-06
1.07615e-06
1.07451e-06
1.07451e-06
1.07451e-06
1.07451e-06
1.07451e-06
1.07634e-06
1.07656e-06
1.07671e-06
1.07736e-06
1.07653e-06
1.07617e-06
1.07451e-06
1.07451e-06
1.07451e-06
1.07637e-06
1.07656e-06
1.07669e-06
1.07753e-06
1.07737e-06
1.07661e-06
1.07663e-06
1.07661e-06
1.07662e-06
1.07665e-06
1.07671e-06
1.07753e-06
1.07742e-06
1.07754e-06
1.07753e-06
1.07753e-06
1.07754e-06
1.0669e-06
1.06593e-06
1.06586e-06
1.06591e-06
1.06686e-06
1.06693e-06
1.06694e-06
1.06607e-06
1.06556e-06
1.06404e-06
1.06404e-06
1.06404e-06
1.06571e-06
1.06607e-06
1.06689e-06
1.06607e-06
1.06553e-06
1.06404e-06
1.06405e-06
1.06404e-06
1.06405e-06
1.06404e-06
1.06568e-06
1.06606e-06
1.0669e-06
1.0669e-06
1.06556e-06
1.06404e-06
1.06404e-06
1.06404e-06
1.06404e-06
1.06404e-06
1.06404e-06
1.06404e-06
1.06571e-06
1.06615e-06
1.06695e-06
1.06593e-06
1.06404e-06
1.06405e-06
1.06404e-06
1.06404e-06
1.06404e-06
1.06404e-06
1.06404e-06
1.06405e-06
1.06404e-06
1.06616e-06
1.06707e-06
1.06586e-06
1.06404e-06
1.06404e-06
1.06404e-06
1.06404e-06
1.06404e-06
1.06404e-06
1.06404e-06
1.06404e-06
1.06404e-06
1.06614e-06
1.06706e-06
1.06591e-06
1.06404e-06
1.06405e-06
1.06404e-06
1.06404e-06
1.06404e-06
1.06404e-06
1.06404e-06
1.06405e-06
1.06404e-06
1.06615e-06
1.06707e-06
1.06686e-06
1.06571e-06
1.06404e-06
1.06404e-06
1.06404e-06
1.06404e-06
1.06404e-06
1.06404e-06
1.06404e-06
1.0659e-06
1.06618e-06
1.06707e-06
1.06693e-06
1.06607e-06
1.06568e-06
1.06404e-06
1.06405e-06
1.06404e-06
1.06405e-06
1.06404e-06
1.06587e-06
1.06609e-06
1.06625e-06
1.06689e-06
1.06606e-06
1.06571e-06
1.06404e-06
1.06404e-06
1.06404e-06
1.0659e-06
1.06609e-06
1.06622e-06
1.06706e-06
1.0669e-06
1.06615e-06
1.06616e-06
1.06614e-06
1.06615e-06
1.06618e-06
1.06625e-06
1.06706e-06
1.06695e-06
1.06707e-06
1.06706e-06
1.06707e-06
1.06707e-06
1.05643e-06
1.05546e-06
1.05539e-06
1.05544e-06
1.05639e-06
1.05646e-06
1.05647e-06
1.0556e-06
1.0551e-06
1.05358e-06
1.05358e-06
1.05358e-06
1.05524e-06
1.0556e-06
1.05643e-06
1.0556e-06
1.05506e-06
1.05358e-06
1.05358e-06
1.05358e-06
1.05358e-06
1.05358e-06
1.05522e-06
1.05559e-06
1.05643e-06
1.05643e-06
1.0551e-06
1.05358e-06
1.05358e-06
1.05358e-06
1.05358e-06
1.05358e-06
1.05358e-06
1.05358e-06
1.05524e-06
1.05568e-06
1.05649e-06
1.05546e-06
1.05358e-06
1.05358e-06
1.05358e-06
1.05358e-06
1.05358e-06
1.05358e-06
1.05358e-06
1.05358e-06
1.05358e-06
1.0557e-06
1.0566e-06
1.05539e-06
1.05358e-06
1.05358e-06
1.05358e-06
1.05358e-06
1.05358e-06
1.05358e-06
1.05358e-06
1.05358e-06
1.05358e-06
1.05567e-06
1.0566e-06
1.05544e-06
1.05358e-06
1.05358e-06
1.05358e-06
1.05358e-06
1.05358e-06
1.05358e-06
1.05358e-06
1.05358e-06
1.05358e-06
1.05568e-06
1.0566e-06
1.05639e-06
1.05524e-06
1.05358e-06
1.05358e-06
1.05358e-06
1.05358e-06
1.05358e-06
1.05358e-06
1.05358e-06
1.05544e-06
1.05571e-06
1.05661e-06
1.05646e-06
1.0556e-06
1.05522e-06
1.05358e-06
1.05358e-06
1.05358e-06
1.05358e-06
1.05358e-06
1.0554e-06
1.05562e-06
1.05578e-06
1.05643e-06
1.05559e-06
1.05524e-06
1.05358e-06
1.05358e-06
1.05358e-06
1.05544e-06
1.05562e-06
1.05575e-06
1.05659e-06
1.05643e-06
1.05568e-06
1.0557e-06
1.05567e-06
1.05568e-06
1.05571e-06
1.05578e-06
1.05659e-06
1.05649e-06
1.0566e-06
1.0566e-06
1.0566e-06
1.05661e-06
1.04596e-06
1.04499e-06
1.04492e-06
1.04497e-06
1.04593e-06
1.04599e-06
1.046e-06
1.04513e-06
1.04463e-06
1.04311e-06
1.04311e-06
1.04311e-06
1.04477e-06
1.04513e-06
1.04596e-06
1.04513e-06
1.0446e-06
1.04311e-06
1.04311e-06
1.04311e-06
1.04311e-06
1.04311e-06
1.04475e-06
1.04513e-06
1.04596e-06
1.04596e-06
1.04463e-06
1.04311e-06
1.04311e-06
1.04311e-06
1.04311e-06
1.04311e-06
1.04311e-06
1.04311e-06
1.04477e-06
1.04521e-06
1.04602e-06
1.04499e-06
1.04311e-06
1.04311e-06
1.04311e-06
1.04311e-06
1.04311e-06
1.04311e-06
1.04311e-06
1.04311e-06
1.04311e-06
1.04523e-06
1.04613e-06
1.04492e-06
1.04311e-06
1.04311e-06
1.04311e-06
1.04311e-06
1.04311e-06
1.04311e-06
1.04311e-06
1.04311e-06
1.04311e-06
1.04521e-06
1.04613e-06
1.04497e-06
1.04311e-06
1.04311e-06
1.04311e-06
1.04311e-06
1.04311e-06
1.04311e-06
1.04311e-06
1.04311e-06
1.04311e-06
1.04522e-06
1.04613e-06
1.04593e-06
1.04477e-06
1.04311e-06
1.04311e-06
1.04311e-06
1.04311e-06
1.04311e-06
1.04311e-06
1.04311e-06
1.04497e-06
1.04524e-06
1.04614e-06
1.04599e-06
1.04513e-06
1.04475e-06
1.04311e-06
1.04311e-06
1.04311e-06
1.04311e-06
1.04311e-06
1.04493e-06
1.04515e-06
1.04531e-06
1.04596e-06
1.04513e-06
1.04477e-06
1.04311e-06
1.04311e-06
1.04311e-06
1.04497e-06
1.04515e-06
1.04528e-06
1.04613e-06
1.04596e-06
1.04521e-06
1.04523e-06
1.04521e-06
1.04522e-06
1.04524e-06
1.04531e-06
1.04613e-06
1.04602e-06
1.04613e-06
1.04613e-06
1.04613e-06
1.04614e-06
1.03549e-06
1.03453e-06
1.03446e-06
1.0345e-06
1.03546e-06
1.03553e-06
1.03553e-06
1.03466e-06
1.03416e-06
1.03264e-06
1.03264e-06
1.03264e-06
1.03431e-06
1.03466e-06
1.03549e-06
1.03466e-06
1.03413e-06
1.03264e-06
1.03264e-06
1.03264e-06
1.03264e-06
1.03264e-06
1.03428e-06
1.03466e-06
1.0355e-06
1.03549e-06
1.03416e-06
1.03264e-06
1.03264e-06
1.03264e-06
1.03264e-06
1.03264e-06
1.03264e-06
1.03264e-06
1.0343e-06
1.03474e-06
1.03555e-06
1.03453e-06
1.03264e-06
1.03264e-06
1.03264e-06
1.03264e-06
1.03264e-06
1.03264e-06
1.03264e-06
1.03264e-06
1.03264e-06
1.03476e-06
1.03566e-06
1.03446e-06
1.03264e-06
1.03264e-06
1.03264e-06
1.03264e-06
1.03264e-06
1.03264e-06
1.03264e-06
1.03264e-06
1.03264e-06
1.03474e-06
1.03566e-06
1.0345e-06
1.03264e-06
1.03264e-06
1.03264e-06
1.03264e-06