/*--------------------------------*- C++ -*----------------------------------*\
| =========                 |                                                 |
| \\      /  F ield         | OpenFOAM: The Open Source CFD Toolbox           |
|  \\    /   O peration     | Version:  v2012                                 |
|   \\  /    A nd           | Website:  www.openfoam.com                      |
|    \\/     M anipulation  |                                                 |
\*---------------------------------------------------------------------------*/
FoamFile
{
    version     2.0;
    format      ascii;
    class       volScalarField;
    location    "70";
    object      p;
}
// * * * * * * * * * * * * * * * * * * * * * * * * * * * * * * * * * * * * * //

dimensions      [0 2 -2 0 0 0 0];


internalField   nonuniform List<scalar> 
292667
(
1.06094e-06
1.05199e-06
1.05132e-06
1.05138e-06
1.05228e-06
1.06179e-06
1.0522e-06
1.04991e-06
1.04855e-06
1.04799e-06
1.04806e-06
1.04879e-06
1.05034e-06
1.05283e-06
1.0522e-06
1.04924e-06
1.04737e-06
1.04634e-06
1.0459e-06
1.04596e-06
1.04652e-06
1.04772e-06
1.04982e-06
1.053e-06
1.06094e-06
1.04991e-06
1.04737e-06
1.04585e-06
1.04501e-06
1.04464e-06
1.04469e-06
1.04516e-06
1.04615e-06
1.04787e-06
1.05069e-06
1.0604e-06
1.05199e-06
1.04855e-06
1.04634e-06
1.04501e-06
1.04425e-06
1.04392e-06
1.04397e-06
1.04439e-06
1.04527e-06
1.04678e-06
1.04928e-06
1.05532e-06
1.05132e-06
1.04799e-06
1.0459e-06
1.04464e-06
1.04392e-06
1.04361e-06
1.04365e-06
1.04406e-06
1.0449e-06
1.04633e-06
1.0487e-06
1.05381e-06
1.05138e-06
1.04806e-06
1.04596e-06
1.04469e-06
1.04397e-06
1.04365e-06
1.0437e-06
1.0441e-06
1.04495e-06
1.04639e-06
1.04879e-06
1.05411e-06
1.05228e-06
1.04879e-06
1.04652e-06
1.04516e-06
1.04439e-06
1.04406e-06
1.0441e-06
1.04454e-06
1.04544e-06
1.04699e-06
1.04956e-06
1.05561e-06
1.06179e-06
1.05034e-06
1.04772e-06
1.04615e-06
1.04527e-06
1.0449e-06
1.04495e-06
1.04544e-06
1.04647e-06
1.04826e-06
1.05119e-06
1.06025e-06
1.05283e-06
1.04982e-06
1.04787e-06
1.04678e-06
1.04633e-06
1.04639e-06
1.04699e-06
1.04826e-06
1.05048e-06
1.05628e-06
1.053e-06
1.05069e-06
1.04928e-06
1.0487e-06
1.04879e-06
1.04956e-06
1.05119e-06
1.05628e-06
1.0604e-06
1.05532e-06
1.05381e-06
1.05411e-06
1.05561e-06
1.06025e-06
1.03692e-06
1.03627e-06
1.03624e-06
1.03629e-06
1.03695e-06
1.03681e-06
1.03694e-06
1.03644e-06
1.03611e-06
1.03496e-06
1.03494e-06
1.03496e-06
1.03627e-06
1.0365e-06
1.037e-06
1.03644e-06
1.03609e-06
1.035e-06
1.03496e-06
1.035e-06
1.03496e-06
1.035e-06
1.03626e-06
1.03649e-06
1.03698e-06
1.03692e-06
1.03611e-06
1.035e-06
1.03494e-06
1.03497e-06
1.03495e-06
1.03497e-06
1.03494e-06
1.035e-06
1.03626e-06
1.03652e-06
1.037e-06
1.03627e-06
1.03496e-06
1.03496e-06
1.03497e-06
1.03493e-06
1.03493e-06
1.03493e-06
1.03497e-06
1.03496e-06
1.03496e-06
1.03668e-06
1.03718e-06
1.03624e-06
1.03494e-06
1.035e-06
1.03495e-06
1.03493e-06
1.03492e-06
1.03493e-06
1.03495e-06
1.035e-06
1.03494e-06
1.0367e-06
1.03712e-06
1.03629e-06
1.03496e-06
1.03496e-06
1.03497e-06
1.03493e-06
1.03493e-06
1.03493e-06
1.03497e-06
1.03496e-06
1.03496e-06
1.0367e-06
1.03714e-06
1.03695e-06
1.03627e-06
1.035e-06
1.03494e-06
1.03497e-06
1.03495e-06
1.03497e-06
1.03494e-06
1.035e-06
1.03646e-06
1.03659e-06
1.03713e-06
1.03681e-06
1.0365e-06
1.03626e-06
1.035e-06
1.03496e-06
1.035e-06
1.03496e-06
1.035e-06
1.03643e-06
1.03656e-06
1.03655e-06
1.037e-06
1.03649e-06
1.03626e-06
1.03496e-06
1.03494e-06
1.03496e-06
1.03646e-06
1.03656e-06
1.03659e-06
1.03709e-06
1.03698e-06
1.03652e-06
1.03668e-06
1.0367e-06
1.0367e-06
1.03659e-06
1.03655e-06
1.03709e-06
1.037e-06
1.03718e-06
1.03712e-06
1.03714e-06
1.03713e-06
1.0281e-06
1.0274e-06
1.02734e-06
1.02739e-06
1.02812e-06
1.02813e-06
1.02811e-06
1.0275e-06
1.02711e-06
1.026e-06
1.026e-06
1.026e-06
1.02727e-06
1.02754e-06
1.02812e-06
1.0275e-06
1.02709e-06
1.02604e-06
1.02605e-06
1.02608e-06
1.02605e-06
1.02604e-06
1.02727e-06
1.02754e-06
1.02813e-06
1.0281e-06
1.02711e-06
1.02604e-06
1.02606e-06
1.02611e-06
1.0261e-06
1.02611e-06
1.02606e-06
1.02604e-06
1.02728e-06
1.0276e-06
1.02815e-06
1.0274e-06
1.026e-06
1.02605e-06
1.02611e-06
1.02611e-06
1.02613e-06
1.02611e-06
1.02611e-06
1.02605e-06
1.026e-06
1.02767e-06
1.0283e-06
1.02734e-06
1.026e-06
1.02608e-06
1.0261e-06
1.02613e-06
1.02614e-06
1.02613e-06
1.0261e-06
1.02608e-06
1.026e-06
1.02768e-06
1.02832e-06
1.02739e-06
1.026e-06
1.02605e-06
1.02611e-06
1.02611e-06
1.02613e-06
1.02611e-06
1.02611e-06
1.02605e-06
1.026e-06
1.02767e-06
1.02832e-06
1.02812e-06
1.02727e-06
1.02604e-06
1.02606e-06
1.02611e-06
1.0261e-06
1.02611e-06
1.02606e-06
1.02604e-06
1.02749e-06
1.02765e-06
1.02829e-06
1.02813e-06
1.02754e-06
1.02727e-06
1.02604e-06
1.02605e-06
1.02608e-06
1.02605e-06
1.02604e-06
1.02747e-06
1.02759e-06
1.02768e-06
1.02812e-06
1.02754e-06
1.02728e-06
1.026e-06
1.026e-06
1.026e-06
1.02749e-06
1.02759e-06
1.02766e-06
1.02826e-06
1.02813e-06
1.0276e-06
1.02767e-06
1.02768e-06
1.02767e-06
1.02765e-06
1.02768e-06
1.02826e-06
1.02815e-06
1.0283e-06
1.02832e-06
1.02832e-06
1.02829e-06
1.01931e-06
1.01859e-06
1.01853e-06
1.01858e-06
1.01932e-06
1.01934e-06
1.01932e-06
1.01869e-06
1.01828e-06
1.01716e-06
1.01716e-06
1.01716e-06
1.01843e-06
1.01872e-06
1.01933e-06
1.01869e-06
1.01825e-06
1.01718e-06
1.0172e-06
1.01721e-06
1.0172e-06
1.01718e-06
1.01842e-06
1.01872e-06
1.01933e-06
1.01931e-06
1.01828e-06
1.01718e-06
1.01721e-06
1.01724e-06
1.01724e-06
1.01724e-06
1.01721e-06
1.01718e-06
1.01844e-06
1.01879e-06
1.01935e-06
1.01859e-06
1.01716e-06
1.0172e-06
1.01724e-06
1.01725e-06
1.01726e-06
1.01725e-06
1.01724e-06
1.0172e-06
1.01716e-06
1.01886e-06
1.0195e-06
1.01853e-06
1.01716e-06
1.01721e-06
1.01724e-06
1.01726e-06
1.01727e-06
1.01726e-06
1.01724e-06
1.01721e-06
1.01716e-06
1.01885e-06
1.01952e-06
1.01858e-06
1.01716e-06
1.0172e-06
1.01724e-06
1.01725e-06
1.01726e-06
1.01725e-06
1.01724e-06
1.0172e-06
1.01716e-06
1.01885e-06
1.01952e-06
1.01932e-06
1.01843e-06
1.01718e-06
1.01721e-06
1.01724e-06
1.01724e-06
1.01724e-06
1.01721e-06
1.01718e-06
1.01865e-06
1.01884e-06
1.01949e-06
1.01934e-06
1.01872e-06
1.01842e-06
1.01718e-06
1.0172e-06
1.01721e-06
1.0172e-06
1.01718e-06
1.01863e-06
1.01877e-06
1.01888e-06
1.01933e-06
1.01872e-06
1.01844e-06
1.01716e-06
1.01716e-06
1.01716e-06
1.01865e-06
1.01877e-06
1.01886e-06
1.01947e-06
1.01933e-06
1.01879e-06
1.01886e-06
1.01885e-06
1.01885e-06
1.01884e-06
1.01888e-06
1.01947e-06
1.01935e-06
1.0195e-06
1.01952e-06
1.01952e-06
1.01949e-06
1.01051e-06
1.0098e-06
1.00973e-06
1.00978e-06
1.01053e-06
1.01055e-06
1.01053e-06
1.0099e-06
1.00948e-06
1.00835e-06
1.00835e-06
1.00835e-06
1.00963e-06
1.00992e-06
1.01054e-06
1.0099e-06
1.00944e-06
1.00836e-06
1.00837e-06
1.00837e-06
1.00837e-06
1.00836e-06
1.00961e-06
1.00991e-06
1.01054e-06
1.01051e-06
1.00948e-06
1.00836e-06
1.00837e-06
1.00839e-06
1.00839e-06
1.00839e-06
1.00837e-06
1.00836e-06
1.00963e-06
1.01e-06
1.01056e-06
1.0098e-06
1.00835e-06
1.00837e-06
1.00839e-06
1.0084e-06
1.00841e-06
1.0084e-06
1.00839e-06
1.00837e-06
1.00835e-06
1.01006e-06
1.01071e-06
1.00973e-06
1.00835e-06
1.00837e-06
1.00839e-06
1.00841e-06
1.00841e-06
1.00841e-06
1.00839e-06
1.00837e-06
1.00835e-06
1.01005e-06
1.01073e-06
1.00978e-06
1.00835e-06
1.00837e-06
1.00839e-06
1.0084e-06
1.00841e-06
1.0084e-06
1.00839e-06
1.00837e-06
1.00835e-06
1.01005e-06
1.01073e-06
1.01053e-06
1.00963e-06
1.00836e-06
1.00837e-06
1.00839e-06
1.00839e-06
1.00839e-06
1.00837e-06
1.00836e-06
1.00985e-06
1.01005e-06
1.0107e-06
1.01055e-06
1.00992e-06
1.00961e-06
1.00836e-06
1.00837e-06
1.00837e-06
1.00837e-06
1.00836e-06
1.00982e-06
1.00997e-06
1.01009e-06
1.01054e-06
1.00991e-06
1.00963e-06
1.00835e-06
1.00835e-06
1.00835e-06
1.00985e-06
1.00997e-06
1.01006e-06
1.01068e-06
1.01054e-06
1.01e-06
1.01006e-06
1.01005e-06
1.01005e-06
1.01005e-06
1.01009e-06
1.01068e-06
1.01056e-06
1.01071e-06
1.01073e-06
1.01073e-06
1.0107e-06
1.00172e-06
1.001e-06
1.00094e-06
1.00098e-06
1.00173e-06
1.00175e-06
1.00173e-06
1.0011e-06
1.00068e-06
9.99541e-07
9.99542e-07
9.99541e-07
1.00083e-06
1.00112e-06
1.00174e-06
1.0011e-06
1.00064e-06
9.99547e-07
9.99554e-07
9.99557e-07
9.99554e-07
9.99547e-07
1.00081e-06
1.00112e-06
1.00175e-06
1.00172e-06
1.00068e-06
9.99547e-07
9.99557e-07
9.99566e-07
9.99568e-07
9.99566e-07
9.99557e-07
9.99547e-07
1.00083e-06
1.0012e-06
1.00176e-06
1.001e-06
9.99541e-07
9.99554e-07
9.99566e-07
9.99575e-07
9.9958e-07
9.99575e-07
9.99566e-07
9.99554e-07
9.99541e-07
1.00126e-06
1.00191e-06
1.00094e-06
9.99542e-07
9.99557e-07
9.99568e-07
9.99579e-07
9.99582e-07
9.9958e-07
9.99568e-07
9.99557e-07
9.99542e-07
1.00125e-06
1.00193e-06
1.00098e-06
9.99541e-07
9.99554e-07
9.99566e-07
9.99575e-07
9.9958e-07
9.99575e-07
9.99566e-07
9.99554e-07
9.99541e-07
1.00125e-06
1.00193e-06
1.00173e-06
1.00083e-06
9.99547e-07
9.99557e-07
9.99566e-07
9.99568e-07
9.99566e-07
9.99557e-07
9.99547e-07
1.00105e-06
1.00125e-06
1.0019e-06
1.00175e-06
1.00112e-06
1.00081e-06
9.99547e-07
9.99554e-07
9.99557e-07
9.99554e-07
9.99547e-07
1.00101e-06
1.00117e-06
1.00129e-06
1.00174e-06
1.00112e-06
1.00083e-06
9.99541e-07
9.99542e-07
9.99541e-07
1.00105e-06
1.00117e-06
1.00127e-06
1.00188e-06
1.00175e-06
1.0012e-06
1.00126e-06
1.00125e-06
1.00125e-06
1.00125e-06
1.00129e-06
1.00188e-06
1.00176e-06
1.00191e-06
1.00193e-06
1.00193e-06
1.0019e-06
9.92921e-07
9.92201e-07
9.92139e-07
9.92187e-07
9.92933e-07
9.92954e-07
9.92936e-07
9.92302e-07
9.91879e-07
9.9074e-07
9.90741e-07
9.9074e-07
9.92029e-07
9.92321e-07
9.92946e-07
9.92302e-07
9.91842e-07
9.90743e-07
9.90748e-07
9.90749e-07
9.90748e-07
9.90743e-07
9.92007e-07
9.92318e-07
9.92949e-07
9.92921e-07
9.91879e-07
9.90743e-07
9.90749e-07
9.90754e-07
9.90755e-07
9.90754e-07
9.90749e-07
9.90743e-07
9.92032e-07
9.92404e-07
9.92968e-07
9.92201e-07
9.9074e-07
9.90748e-07
9.90754e-07
9.9076e-07
9.90762e-07
9.9076e-07
9.90754e-07
9.90748e-07
9.9074e-07
9.92461e-07
9.93117e-07
9.92139e-07
9.90741e-07
9.90749e-07
9.90755e-07
9.90762e-07
9.90763e-07
9.90762e-07
9.90755e-07
9.90749e-07
9.90741e-07
9.92453e-07
9.93135e-07
9.92187e-07
9.9074e-07
9.90748e-07
9.90754e-07
9.9076e-07
9.90762e-07
9.9076e-07
9.90754e-07
9.90748e-07
9.9074e-07
9.92455e-07
9.93135e-07
9.92933e-07
9.92029e-07
9.90743e-07
9.90749e-07
9.90754e-07
9.90755e-07
9.90754e-07
9.90749e-07
9.90743e-07
9.92247e-07
9.92453e-07
9.93107e-07
9.92954e-07
9.92321e-07
9.92007e-07
9.90743e-07
9.90748e-07
9.90749e-07
9.90748e-07
9.90743e-07
9.92215e-07
9.92373e-07
9.92496e-07
9.92946e-07
9.92318e-07
9.92032e-07
9.9074e-07
9.90741e-07
9.9074e-07
9.92247e-07
9.92373e-07
9.92471e-07
9.93088e-07
9.92949e-07
9.92404e-07
9.92461e-07
9.92453e-07
9.92455e-07
9.92453e-07
9.92495e-07
9.93088e-07
9.92968e-07
9.93117e-07
9.93135e-07
9.93135e-07
9.93107e-07
9.84124e-07
9.83403e-07
9.83341e-07
9.83389e-07
9.84136e-07
9.84157e-07
9.84139e-07
9.83504e-07
9.8308e-07
9.81941e-07
9.81942e-07
9.81941e-07
9.83231e-07
9.83523e-07
9.84149e-07
9.83504e-07
9.83044e-07
9.81942e-07
9.81946e-07
9.81946e-07
9.81946e-07
9.81942e-07
9.83208e-07
9.83521e-07
9.84152e-07
9.84124e-07
9.8308e-07
9.81942e-07
9.81946e-07
9.81949e-07
9.8195e-07
9.81949e-07
9.81946e-07
9.81942e-07
9.83233e-07
9.83607e-07
9.8417e-07
9.83403e-07
9.81941e-07
9.81946e-07
9.81949e-07
9.81952e-07
9.81953e-07
9.81952e-07
9.81949e-07
9.81946e-07
9.81941e-07
9.83664e-07
9.8432e-07
9.83341e-07
9.81942e-07
9.81946e-07
9.8195e-07
9.81953e-07
9.81954e-07
9.81953e-07
9.8195e-07
9.81946e-07
9.81942e-07
9.83655e-07
9.84337e-07
9.83389e-07
9.81941e-07
9.81946e-07
9.81949e-07
9.81952e-07
9.81953e-07
9.81952e-07
9.81949e-07
9.81946e-07
9.81941e-07
9.83658e-07
9.84338e-07
9.84136e-07
9.83231e-07
9.81942e-07
9.81946e-07
9.81949e-07
9.8195e-07
9.81949e-07
9.81946e-07
9.81942e-07
9.83449e-07
9.83655e-07
9.8431e-07
9.84157e-07
9.83523e-07
9.83208e-07
9.81943e-07
9.81946e-07
9.81946e-07
9.81946e-07
9.81942e-07
9.83416e-07
9.83575e-07
9.83698e-07
9.84149e-07
9.83521e-07
9.83233e-07
9.81941e-07
9.81942e-07
9.81941e-07
9.83449e-07
9.83575e-07
9.83674e-07
9.84291e-07
9.84152e-07
9.83607e-07
9.83664e-07
9.83655e-07
9.83658e-07
9.83655e-07
9.83698e-07
9.84291e-07
9.8417e-07
9.8432e-07
9.84338e-07
9.84338e-07
9.8431e-07
9.75326e-07
9.74605e-07
9.74543e-07
9.74591e-07
9.75338e-07
9.75359e-07
9.75342e-07
9.74707e-07
9.74282e-07
9.73142e-07
9.73143e-07
9.73142e-07
9.74433e-07
9.74726e-07
9.75352e-07
9.74707e-07
9.74246e-07
9.73143e-07
9.73146e-07
9.73145e-07
9.73146e-07
9.73143e-07
9.7441e-07
9.74723e-07
9.75355e-07
9.75326e-07
9.74283e-07
9.73143e-07
9.73146e-07
9.73147e-07
9.73148e-07
9.73147e-07
9.73146e-07
9.73143e-07
9.74436e-07
9.74809e-07
9.75373e-07
9.74605e-07
9.73142e-07
9.73146e-07
9.73147e-07
9.73149e-07
9.73149e-07
9.73149e-07
9.73147e-07
9.73146e-07
9.73142e-07
9.74866e-07
9.75522e-07
9.74543e-07
9.73143e-07
9.73145e-07
9.73148e-07
9.73149e-07
9.7315e-07
9.73149e-07
9.73148e-07
9.73145e-07
9.73143e-07
9.74857e-07
9.7554e-07
9.74591e-07
9.73142e-07
9.73146e-07
9.73147e-07
9.73149e-07
9.73149e-07
9.73149e-07
9.73147e-07
9.73146e-07
9.73142e-07
9.7486e-07
9.7554e-07
9.75338e-07
9.74433e-07
9.73143e-07
9.73146e-07
9.73147e-07
9.73148e-07
9.73147e-07
9.73146e-07
9.73143e-07
9.74651e-07
9.74858e-07
9.75512e-07
9.75359e-07
9.74726e-07
9.74411e-07
9.73143e-07
9.73146e-07
9.73145e-07
9.73146e-07
9.73143e-07
9.74618e-07
9.74777e-07
9.74901e-07
9.75352e-07
9.74723e-07
9.74436e-07
9.73142e-07
9.73143e-07
9.73142e-07
9.74651e-07
9.74777e-07
9.74876e-07
9.75494e-07
9.75355e-07
9.74809e-07
9.74866e-07
9.74857e-07
9.7486e-07
9.74858e-07
9.74901e-07
9.75493e-07
9.75373e-07
9.75522e-07
9.7554e-07
9.7554e-07
9.75512e-07
9.66529e-07
9.65807e-07
9.65745e-07
9.65793e-07
9.66541e-07
9.66562e-07
9.66544e-07
9.65909e-07
9.65484e-07
9.64344e-07
9.64345e-07
9.64344e-07
9.65635e-07
9.65928e-07
9.66554e-07
9.65909e-07
9.65448e-07
9.64345e-07
9.64347e-07
9.64346e-07
9.64347e-07
9.64345e-07
9.65612e-07
9.65925e-07
9.66557e-07
9.66529e-07
9.65484e-07
9.64345e-07
9.64346e-07
9.64347e-07
9.64347e-07
9.64347e-07
9.64346e-07
9.64345e-07
9.65638e-07
9.66011e-07
9.66575e-07
9.65807e-07
9.64344e-07
9.64347e-07
9.64347e-07
9.64348e-07
9.64348e-07
9.64348e-07
9.64347e-07
9.64347e-07
9.64344e-07
9.66068e-07
9.66725e-07
9.65745e-07
9.64345e-07
9.64346e-07
9.64347e-07
9.64348e-07
9.64349e-07
9.64348e-07
9.64347e-07
9.64346e-07
9.64345e-07
9.6606e-07
9.66742e-07
9.65793e-07
9.64344e-07
9.64347e-07
9.64347e-07
9.64348e-07
9.64348e-07
9.64348e-07
9.64347e-07
9.64347e-07
9.64344e-07
9.66062e-07
9.66742e-07
9.66541e-07
9.65635e-07
9.64345e-07
9.64346e-07
9.64347e-07
9.64347e-07
9.64347e-07
9.64346e-07
9.64345e-07
9.65853e-07
9.6606e-07
9.66714e-07
9.66562e-07
9.65928e-07
9.65612e-07
9.64345e-07
9.64347e-07
9.64346e-07
9.64347e-07
9.64345e-07
9.6582e-07
9.6598e-07
9.66103e-07
9.66554e-07
9.65925e-07
9.65638e-07
9.64344e-07
9.64345e-07
9.64344e-07
9.65853e-07
9.6598e-07
9.66079e-07
9.66696e-07
9.66557e-07
9.66011e-07
9.66068e-07
9.6606e-07
9.66062e-07
9.6606e-07
9.66103e-07
9.66696e-07
9.66575e-07
9.66725e-07
9.66742e-07
9.66743e-07
9.66714e-07
9.57731e-07
9.5701e-07
9.56948e-07
9.56996e-07
9.57743e-07
9.57764e-07
9.57746e-07
9.57111e-07
9.56687e-07
9.55546e-07
9.55547e-07
9.55546e-07
9.56837e-07
9.5713e-07
9.57757e-07
9.57111e-07
9.5665e-07
9.55547e-07
9.55548e-07
9.55548e-07
9.55548e-07
9.55547e-07
9.56815e-07
9.57127e-07
9.5776e-07
9.57731e-07
9.56687e-07
9.55547e-07
9.55548e-07
9.55548e-07
9.55548e-07
9.55548e-07
9.55548e-07
9.55547e-07
9.5684e-07
9.57214e-07
9.57777e-07
9.5701e-07
9.55546e-07
9.55548e-07
9.55548e-07
9.55549e-07
9.55548e-07
9.55549e-07
9.55548e-07
9.55548e-07
9.55546e-07
9.5727e-07
9.57927e-07
9.56948e-07
9.55547e-07
9.55548e-07
9.55548e-07
9.55548e-07
9.55549e-07
9.55548e-07
9.55548e-07
9.55548e-07
9.55547e-07
9.57262e-07
9.57944e-07
9.56996e-07
9.55546e-07
9.55548e-07
9.55548e-07
9.55549e-07
9.55548e-07
9.55549e-07
9.55548e-07
9.55548e-07
9.55546e-07
9.57264e-07
9.57945e-07
9.57743e-07
9.56837e-07
9.55547e-07
9.55548e-07
9.55548e-07
9.55548e-07
9.55548e-07
9.55548e-07
9.55547e-07
9.57055e-07
9.57262e-07
9.57917e-07
9.57764e-07
9.5713e-07
9.56815e-07
9.55547e-07
9.55548e-07
9.55548e-07
9.55548e-07
9.55547e-07
9.57022e-07
9.57182e-07
9.57305e-07
9.57757e-07
9.57127e-07
9.5684e-07
9.55546e-07
9.55547e-07
9.55546e-07
9.57055e-07
9.57182e-07
9.57281e-07
9.57898e-07
9.5776e-07
9.57214e-07
9.5727e-07
9.57262e-07
9.57264e-07
9.57262e-07
9.57306e-07
9.57898e-07
9.57777e-07
9.57927e-07
9.57944e-07
9.57945e-07
9.57917e-07
9.48933e-07
9.48212e-07
9.4815e-07
9.48198e-07
9.48945e-07
9.48966e-07
9.48949e-07
9.48313e-07
9.47889e-07
9.46748e-07
9.46749e-07
9.46748e-07
9.4804e-07
9.48332e-07
9.48959e-07
9.48314e-07
9.47852e-07
9.46749e-07
9.4675e-07
9.46749e-07
9.4675e-07
9.46749e-07
9.48017e-07
9.4833e-07
9.48962e-07
9.48933e-07
9.47889e-07
9.46749e-07
9.4675e-07
9.46749e-07
9.4675e-07
9.46749e-07
9.4675e-07
9.46749e-07
9.48042e-07
9.48416e-07
9.4898e-07
9.48212e-07
9.46748e-07
9.4675e-07
9.46749e-07
9.46751e-07
9.4675e-07
9.46751e-07
9.46749e-07
9.4675e-07
9.46748e-07
9.48473e-07
9.49129e-07
9.4815e-07
9.46749e-07
9.46749e-07
9.4675e-07
9.4675e-07
9.4675e-07
9.4675e-07
9.4675e-07
9.46749e-07
9.46749e-07
9.48464e-07
9.49147e-07
9.48198e-07
9.46748e-07
9.4675e-07
9.46749e-07
9.46751e-07
9.4675e-07
9.46751e-07
9.46749e-07
9.4675e-07
9.46748e-07
9.48466e-07
9.49147e-07
9.48945e-07
9.4804e-07
9.46749e-07
9.4675e-07
9.46749e-07
9.4675e-07
9.46749e-07
9.4675e-07
9.46749e-07
9.48257e-07
9.48464e-07
9.49119e-07
9.48966e-07
9.48332e-07
9.48017e-07
9.46749e-07
9.4675e-07
9.46749e-07
9.4675e-07
9.46749e-07
9.48225e-07
9.48384e-07
9.48508e-07
9.48959e-07
9.4833e-07
9.48042e-07
9.46748e-07
9.46749e-07
9.46748e-07
9.48258e-07
9.48384e-07
9.48483e-07
9.491e-07
9.48962e-07
9.48416e-07
9.48473e-07
9.48464e-07
9.48466e-07
9.48464e-07
9.48508e-07
9.491e-07
9.4898e-07
9.49129e-07
9.49147e-07
9.49147e-07
9.49119e-07
9.40136e-07
9.39414e-07
9.39352e-07
9.394e-07
9.40148e-07
9.40168e-07
9.40151e-07
9.39516e-07
9.39091e-07
9.3795e-07
9.37951e-07
9.3795e-07
9.39242e-07
9.39534e-07
9.40161e-07
9.39516e-07
9.39054e-07
9.37951e-07
9.37952e-07
9.37951e-07
9.37952e-07
9.37951e-07
9.39219e-07
9.39532e-07
9.40164e-07
9.40135e-07
9.39091e-07
9.37951e-07
9.37952e-07
9.37951e-07
9.37952e-07
9.37951e-07
9.37952e-07
9.37951e-07
9.39244e-07
9.39618e-07
9.40182e-07
9.39414e-07
9.3795e-07
9.37952e-07
9.37951e-07
9.37952e-07
9.37952e-07
9.37952e-07
9.37951e-07
9.37952e-07
9.3795e-07
9.39675e-07
9.40332e-07
9.39352e-07
9.37951e-07
9.37951e-07
9.37952e-07
9.37951e-07
9.37952e-07
9.37951e-07
9.37952e-07
9.37951e-07
9.37951e-07
9.39666e-07
9.40349e-07
9.394e-07
9.3795e-07
9.37952e-07
9.37951e-07
9.37952e-07
9.37952e-07
9.37952e-07
9.37951e-07
9.37952e-07
9.3795e-07
9.39669e-07
9.40349e-07
9.40147e-07
9.39242e-07
9.37951e-07
9.37952e-07
9.37951e-07
9.37952e-07
9.37951e-07
9.37952e-07
9.37951e-07
9.39459e-07
9.39667e-07
9.40321e-07
9.40168e-07
9.39534e-07
9.39219e-07
9.37951e-07
9.37952e-07
9.37951e-07
9.37953e-07
9.37951e-07
9.39426e-07
9.39586e-07
9.3971e-07
9.40161e-07
9.39532e-07
9.39244e-07
9.3795e-07
9.37951e-07
9.3795e-07
9.39459e-07
9.39586e-07
9.39686e-07
9.40303e-07
9.40164e-07
9.39618e-07
9.39675e-07
9.39666e-07
9.39669e-07
9.39667e-07
9.3971e-07
9.40303e-07
9.40182e-07
9.40331e-07
9.40349e-07
9.40349e-07
9.40321e-07
9.31338e-07
9.30616e-07
9.30554e-07
9.30602e-07
9.3135e-07
9.31371e-07
9.31353e-07
9.30718e-07
9.30293e-07
9.29152e-07
9.29153e-07
9.29152e-07
9.30444e-07
9.30737e-07
9.31363e-07
9.30718e-07
9.30256e-07
9.29153e-07
9.29154e-07
9.29153e-07
9.29154e-07
9.29153e-07
9.30421e-07
9.30734e-07
9.31367e-07
9.31338e-07
9.30293e-07
9.29153e-07
9.29154e-07
9.29153e-07
9.29154e-07
9.29153e-07
9.29154e-07
9.29153e-07
9.30446e-07
9.3082e-07
9.31384e-07
9.30616e-07
9.29152e-07
9.29154e-07
9.29153e-07
9.29155e-07
9.29154e-07
9.29155e-07
9.29153e-07
9.29154e-07
9.29152e-07
9.30877e-07
9.31534e-07
9.30554e-07
9.29153e-07
9.29153e-07
9.29154e-07
9.29154e-07
9.29154e-07
9.29154e-07
9.29154e-07
9.29153e-07
9.29153e-07
9.30868e-07
9.31551e-07
9.30602e-07
9.29152e-07
9.29154e-07
9.29153e-07
9.29155e-07
9.29154e-07
9.29155e-07
9.29153e-07
9.29154e-07
9.29152e-07
9.30871e-07
9.31551e-07
9.3135e-07
9.30444e-07
9.29153e-07
9.29154e-07
9.29153e-07
9.29154e-07
9.29153e-07
9.29154e-07
9.29153e-07
9.30662e-07
9.30869e-07
9.31523e-07
9.31371e-07
9.30737e-07
9.30421e-07
9.29153e-07
9.29154e-07
9.29153e-07
9.29154e-07
9.29153e-07
9.30629e-07
9.30789e-07
9.30912e-07
9.31363e-07
9.30734e-07
9.30446e-07
9.29152e-07
9.29153e-07
9.29152e-07
9.30662e-07
9.30789e-07
9.30888e-07
9.31505e-07
9.31367e-07
9.3082e-07
9.30877e-07
9.30868e-07
9.30871e-07
9.30869e-07
9.30912e-07
9.31505e-07
9.31384e-07
9.31534e-07
9.31551e-07
9.31551e-07
9.31523e-07
9.2254e-07
9.21819e-07
9.21757e-07
9.21805e-07
9.22552e-07
9.22573e-07
9.22555e-07
9.2192e-07
9.21495e-07
9.20355e-07
9.20355e-07
9.20355e-07
9.21646e-07
9.21939e-07
9.22565e-07
9.2192e-07
9.21459e-07
9.20355e-07
9.20357e-07
9.20355e-07
9.20357e-07
9.20355e-07
9.21623e-07
9.21936e-07
9.22569e-07
9.2254e-07
9.21495e-07
9.20355e-07
9.20356e-07
9.20355e-07
9.20356e-07
9.20355e-07
9.20356e-07
9.20355e-07
9.21649e-07
9.22023e-07
9.22586e-07
9.21819e-07
9.20355e-07
9.20357e-07
9.20355e-07
9.20357e-07
9.20356e-07
9.20357e-07
9.20355e-07
9.20357e-07
9.20355e-07
9.22079e-07
9.22736e-07
9.21757e-07
9.20355e-07
9.20355e-07
9.20356e-07
9.20356e-07
9.20356e-07
9.20356e-07
9.20356e-07
9.20355e-07
9.20355e-07
9.2207e-07
9.22753e-07
9.21805e-07
9.20355e-07
9.20357e-07
9.20355e-07
9.20357e-07
9.20356e-07
9.20357e-07
9.20355e-07
9.20357e-07
9.20355e-07
9.22073e-07
9.22754e-07
9.22552e-07
9.21646e-07
9.20355e-07
9.20356e-07
9.20355e-07
9.20356e-07
9.20355e-07
9.20356e-07
9.20355e-07
9.21864e-07
9.22071e-07
9.22726e-07
9.22573e-07
9.21939e-07
9.21623e-07
9.20355e-07
9.20357e-07
9.20355e-07
9.20357e-07
9.20355e-07
9.21831e-07
9.21991e-07
9.22114e-07
9.22566e-07
9.21936e-07
9.21649e-07
9.20355e-07
9.20355e-07
9.20355e-07
9.21864e-07
9.21991e-07
9.2209e-07
9.22707e-07
9.22569e-07
9.22023e-07
9.22079e-07
9.2207e-07
9.22073e-07
9.22071e-07
9.22114e-07
9.22707e-07
9.22586e-07
9.22736e-07
9.22753e-07
9.22754e-07
9.22726e-07
9.13742e-07
9.13021e-07
9.12959e-07
9.13007e-07
9.13754e-07
9.13775e-07
9.13757e-07
9.13122e-07
9.12698e-07
9.11557e-07
9.11558e-07
9.11557e-07
9.12848e-07
9.13141e-07
9.13768e-07
9.13122e-07
9.12661e-07
9.11557e-07
9.11559e-07
9.11558e-07
9.11559e-07
9.11557e-07
9.12826e-07
9.13139e-07
9.13771e-07
9.13742e-07
9.12698e-07
9.11557e-07
9.11558e-07
9.11557e-07
9.11558e-07
9.11557e-07
9.11558e-07
9.11557e-07
9.12851e-07
9.13225e-07
9.13788e-07
9.13021e-07
9.11557e-07
9.11559e-07
9.11557e-07
9.11559e-07
9.11558e-07
9.11559e-07
9.11557e-07
9.11559e-07
9.11557e-07
9.13281e-07
9.13938e-07
9.12959e-07
9.11558e-07
9.11558e-07
9.11558e-07
9.11558e-07
9.11558e-07
9.11558e-07
9.11558e-07
9.11558e-07
9.11558e-07
9.13273e-07
9.13956e-07
9.13007e-07
9.11557e-07
9.11559e-07
9.11557e-07
9.11559e-07
9.11558e-07
9.11559e-07
9.11557e-07
9.11559e-07
9.11557e-07
9.13275e-07
9.13956e-07
9.13754e-07
9.12849e-07
9.11557e-07
9.11558e-07
9.11557e-07
9.11558e-07
9.11557e-07
9.11558e-07
9.11557e-07
9.13066e-07
9.13273e-07
9.13928e-07
9.13775e-07
9.13141e-07
9.12826e-07
9.11557e-07
9.11559e-07
9.11558e-07
9.11559e-07
9.11557e-07
9.13033e-07
9.13193e-07
9.13317e-07
9.13768e-07
9.13139e-07
9.12851e-07
9.11557e-07
9.11558e-07
9.11557e-07
9.13066e-07
9.13193e-07
9.13292e-07
9.13909e-07
9.13771e-07
9.13225e-07
9.13281e-07
9.13273e-07
9.13275e-07
9.13273e-07
9.13317e-07
9.13909e-07
9.13789e-07
9.13938e-07
9.13956e-07
9.13956e-07
9.13928e-07
9.04944e-07
9.04223e-07
9.04161e-07
9.04209e-07
9.04956e-07
9.04977e-07
9.0496e-07
9.04325e-07
9.039e-07
9.02759e-07
9.0276e-07
9.02759e-07
9.04051e-07
9.04343e-07
9.0497e-07
9.04325e-07
9.03863e-07
9.0276e-07
9.02761e-07
9.0276e-07
9.02761e-07
9.0276e-07
9.04028e-07
9.04341e-07
9.04973e-07
9.04944e-07
9.039e-07
9.0276e-07
9.0276e-07
9.0276e-07
9.0276e-07
9.0276e-07
9.0276e-07
9.0276e-07
9.04053e-07
9.04427e-07
9.04991e-07
9.04223e-07
9.02759e-07
9.02761e-07
9.0276e-07
9.02761e-07
9.0276e-07
9.02761e-07
9.0276e-07
9.02761e-07
9.02759e-07
9.04484e-07
9.0514e-07
9.04161e-07
9.0276e-07
9.0276e-07
9.0276e-07
9.0276e-07
9.0276e-07
9.0276e-07
9.0276e-07
9.0276e-07
9.0276e-07
9.04475e-07
9.05158e-07
9.04209e-07
9.02759e-07
9.02761e-07
9.0276e-07
9.02761e-07
9.0276e-07
9.02761e-07
9.0276e-07
9.02761e-07
9.02759e-07
9.04477e-07
9.05158e-07
9.04956e-07
9.04051e-07
9.0276e-07
9.0276e-07
9.0276e-07
9.0276e-07
9.0276e-07
9.0276e-07
9.0276e-07
9.04268e-07
9.04476e-07
9.0513e-07
9.04977e-07
9.04343e-07
9.04028e-07
9.0276e-07
9.02761e-07
9.0276e-07
9.02761e-07
9.0276e-07
9.04235e-07
9.04395e-07
9.04519e-07
9.0497e-07
9.04341e-07
9.04053e-07
9.02759e-07
9.0276e-07
9.02759e-07
9.04268e-07
9.04395e-07
9.04495e-07
9.05112e-07
9.04973e-07
9.04427e-07
9.04484e-07
9.04475e-07
9.04477e-07
9.04476e-07
9.04519e-07
9.05111e-07
9.04991e-07
9.0514e-07
9.05158e-07
9.05158e-07
9.0513e-07
8.96147e-07
8.95425e-07
8.95363e-07
8.95411e-07
8.96159e-07
8.9618e-07
8.96162e-07
8.95527e-07
8.95102e-07
8.93961e-07
8.93962e-07
8.93961e-07
8.95253e-07
8.95546e-07
8.96172e-07
8.95527e-07
8.95065e-07
8.93962e-07
8.93963e-07
8.93962e-07
8.93963e-07
8.93962e-07
8.9523e-07
8.95543e-07
8.96175e-07
8.96147e-07
8.95102e-07
8.93962e-07
8.93963e-07
8.93962e-07
8.93962e-07
8.93962e-07
8.93963e-07
8.93962e-07
8.95255e-07
8.95629e-07
8.96193e-07
8.95425e-07
8.93961e-07
8.93963e-07
8.93962e-07
8.93963e-07
8.93962e-07
8.93963e-07
8.93962e-07
8.93963e-07
8.93961e-07
8.95686e-07
8.96343e-07
8.95363e-07
8.93962e-07
8.93962e-07
8.93962e-07
8.93962e-07
8.93962e-07
8.93962e-07
8.93962e-07
8.93962e-07
8.93962e-07
8.95677e-07
8.9636e-07
8.95411e-07
8.93961e-07
8.93963e-07
8.93962e-07
8.93963e-07
8.93962e-07
8.93963e-07
8.93962e-07
8.93963e-07
8.93961e-07
8.9568e-07
8.9636e-07
8.96159e-07
8.95253e-07
8.93962e-07
8.93963e-07
8.93962e-07
8.93962e-07
8.93962e-07
8.93963e-07
8.93962e-07
8.95471e-07
8.95678e-07
8.96332e-07
8.96179e-07
8.95546e-07
8.9523e-07
8.93962e-07
8.93963e-07
8.93962e-07
8.93963e-07
8.93962e-07
8.95438e-07
8.95597e-07
8.95721e-07
8.96172e-07
8.95543e-07
8.95255e-07
8.93961e-07
8.93962e-07
8.93961e-07
8.95471e-07
8.95598e-07
8.95697e-07
8.96314e-07
8.96175e-07
8.95629e-07
8.95686e-07
8.95677e-07
8.9568e-07
8.95678e-07
8.95721e-07
8.96314e-07
8.96193e-07
8.96343e-07
8.9636e-07
8.9636e-07
8.96332e-07
8.87349e-07
8.86628e-07
8.86566e-07
8.86614e-07
8.87361e-07
8.87382e-07
8.87364e-07
8.86729e-07
8.86304e-07
8.85164e-07
8.85164e-07
8.85164e-07
8.86455e-07
8.86748e-07
8.87374e-07
8.86729e-07
8.86267e-07
8.85164e-07
8.85166e-07
8.85164e-07
8.85166e-07
8.85164e-07
8.86432e-07
8.86745e-07
8.87378e-07
8.87349e-07
8.86304e-07
8.85164e-07
8.85165e-07
8.85164e-07
8.85165e-07
8.85164e-07
8.85165e-07
8.85164e-07
8.86458e-07
8.86831e-07
8.87395e-07
8.86628e-07
8.85164e-07
8.85166e-07
8.85164e-07
8.85165e-07
8.85164e-07
8.85165e-07
8.85164e-07
8.85166e-07
8.85164e-07
8.86888e-07
8.87545e-07
8.86565e-07
8.85164e-07
8.85164e-07
8.85165e-07
8.85164e-07
8.85165e-07
8.85164e-07
8.85165e-07
8.85164e-07
8.85164e-07
8.86879e-07
8.87562e-07
8.86613e-07
8.85164e-07
8.85166e-07
8.85164e-07
8.85165e-07
8.85164e-07
8.85165e-07
8.85164e-07
8.85166e-07
8.85164e-07
8.86882e-07
8.87563e-07
8.87361e-07
8.86455e-07
8.85164e-07
8.85165e-07
8.85164e-07
8.85165e-07
8.85164e-07
8.85165e-07
8.85164e-07
8.86673e-07
8.8688e-07
8.87534e-07
8.87382e-07
8.86748e-07
8.86432e-07
8.85164e-07
8.85166e-07
8.85164e-07
8.85166e-07
8.85164e-07
8.8664e-07
8.868e-07
8.86923e-07
8.87374e-07
8.86745e-07
8.86458e-07
8.85164e-07
8.85164e-07
8.85164e-07
8.86673e-07
8.868e-07
8.86899e-07
8.87516e-07
8.87378e-07
8.86831e-07
8.86888e-07
8.86879e-07
8.86882e-07
8.8688e-07
8.86923e-07
8.87516e-07
8.87395e-07
8.87545e-07
8.87562e-07
8.87563e-07
8.87534e-07
8.78551e-07
8.7783e-07
8.77768e-07
8.77816e-07
8.78563e-07
8.78584e-07
8.78566e-07
8.77931e-07
8.77507e-07
8.76366e-07
8.76366e-07
8.76366e-07
8.77657e-07
8.7795e-07
8.78577e-07
8.77931e-07
8.7747e-07
8.76366e-07
8.76368e-07
8.76367e-07
8.76368e-07
8.76366e-07
8.77635e-07
8.77948e-07
8.7858e-07
8.78551e-07
8.77507e-07
8.76366e-07
8.76367e-07
8.76366e-07
8.76367e-07
8.76366e-07
8.76367e-07
8.76366e-07
8.7766e-07
8.78034e-07
8.78598e-07
8.7783e-07
8.76366e-07
8.76368e-07
8.76366e-07
8.76368e-07
8.76366e-07
8.76368e-07
8.76366e-07
8.76368e-07
8.76366e-07
8.7809e-07
8.78747e-07
8.77768e-07
8.76366e-07
8.76367e-07
8.76367e-07
8.76366e-07
8.76367e-07
8.76366e-07
8.76367e-07
8.76367e-07
8.76366e-07
8.78082e-07
8.78765e-07
8.77816e-07
8.76366e-07
8.76368e-07
8.76366e-07
8.76368e-07
8.76366e-07
8.76368e-07
8.76366e-07
8.76368e-07
8.76366e-07
8.78084e-07
8.78765e-07
8.78563e-07
8.77657e-07
8.76366e-07
8.76367e-07
8.76366e-07
8.76367e-07
8.76366e-07
8.76367e-07
8.76366e-07
8.77875e-07
8.78082e-07
8.78737e-07
8.78584e-07
8.7795e-07
8.77634e-07
8.76366e-07
8.76368e-07
8.76367e-07
8.76368e-07
8.76366e-07
8.77842e-07
8.78002e-07
8.78126e-07
8.78577e-07
8.77947e-07
8.7766e-07
8.76366e-07
8.76366e-07
8.76366e-07
8.77875e-07
8.78002e-07
8.78101e-07
8.78718e-07
8.7858e-07
8.78034e-07
8.7809e-07
8.78082e-07
8.78084e-07
8.78082e-07
8.78126e-07
8.78718e-07
8.78597e-07
8.78747e-07
8.78764e-07
8.78765e-07
8.78737e-07
8.69753e-07
8.69032e-07
8.6897e-07
8.69018e-07
8.69765e-07
8.69786e-07
8.69769e-07
8.69133e-07
8.68709e-07
8.67568e-07
8.67569e-07
8.67568e-07
8.6886e-07
8.69152e-07
8.69779e-07
8.69133e-07
8.68672e-07
8.67568e-07
8.6757e-07
8.67569e-07
8.6757e-07
8.67568e-07
8.68837e-07
8.6915e-07
8.69782e-07
8.69753e-07
8.68709e-07
8.67568e-07
8.67569e-07
8.67568e-07
8.67569e-07
8.67568e-07
8.67569e-07
8.67568e-07
8.68862e-07
8.69236e-07
8.698e-07
8.69032e-07
8.67568e-07
8.6757e-07
8.67568e-07
8.6757e-07
8.67569e-07
8.6757e-07
8.67568e-07
8.6757e-07
8.67568e-07
8.69292e-07
8.69949e-07
8.6897e-07
8.67569e-07
8.67569e-07
8.67569e-07
8.67569e-07
8.67569e-07
8.67569e-07
8.67569e-07
8.67569e-07
8.67569e-07
8.69284e-07
8.69967e-07
8.69018e-07
8.67568e-07
8.6757e-07
8.67568e-07
8.6757e-07
8.67569e-07
8.6757e-07
8.67568e-07
8.6757e-07
8.67568e-07
8.69286e-07
8.69967e-07
8.69765e-07
8.6886e-07