/*--------------------------------*- C++ -*----------------------------------*\
| =========                 |                                                 |
| \\      /  F ield         | OpenFOAM: The Open Source CFD Toolbox           |
|  \\    /   O peration     | Version:  v2012                                 |
|   \\  /    A nd           | Website:  www.openfoam.com                      |
|    \\/     M anipulation  |                                                 |
\*---------------------------------------------------------------------------*/
FoamFile
{
    version     2.0;
    format      ascii;
    class       volScalarField;
    location    "50";
    object      p;
}
// * * * * * * * * * * * * * * * * * * * * * * * * * * * * * * * * * * * * * //

dimensions      [0 2 -2 0 0 0 0];


internalField   nonuniform List<scalar> 
292667
(
1.19648e-06
1.18706e-06
1.1863e-06
1.18637e-06
1.18741e-06
1.19739e-06
1.18727e-06
1.18462e-06
1.18308e-06
1.18244e-06
1.18253e-06
1.18335e-06
1.18513e-06
1.18802e-06
1.18727e-06
1.18385e-06
1.18172e-06
1.18054e-06
1.18005e-06
1.18012e-06
1.18076e-06
1.18212e-06
1.18453e-06
1.18824e-06
1.19648e-06
1.18462e-06
1.18172e-06
1.17999e-06
1.17903e-06
1.17861e-06
1.17867e-06
1.17921e-06
1.18033e-06
1.18229e-06
1.18554e-06
1.19612e-06
1.18706e-06
1.18308e-06
1.18054e-06
1.17903e-06
1.17817e-06
1.17779e-06
1.17785e-06
1.17833e-06
1.17933e-06
1.18105e-06
1.18392e-06
1.19071e-06
1.1863e-06
1.18244e-06
1.18005e-06
1.17861e-06
1.17779e-06
1.17744e-06
1.17749e-06
1.17795e-06
1.1789e-06
1.18054e-06
1.18326e-06
1.18905e-06
1.18637e-06
1.18253e-06
1.18012e-06
1.17867e-06
1.17785e-06
1.17749e-06
1.17754e-06
1.178e-06
1.17896e-06
1.18061e-06
1.18336e-06
1.18937e-06
1.18741e-06
1.18335e-06
1.18076e-06
1.17921e-06
1.17833e-06
1.17795e-06
1.178e-06
1.1785e-06
1.17952e-06
1.18129e-06
1.18424e-06
1.19102e-06
1.19739e-06
1.18513e-06
1.18212e-06
1.18033e-06
1.17933e-06
1.1789e-06
1.17896e-06
1.17952e-06
1.18069e-06
1.18274e-06
1.18611e-06
1.19603e-06
1.18802e-06
1.18453e-06
1.18229e-06
1.18105e-06
1.18054e-06
1.18061e-06
1.18129e-06
1.18274e-06
1.18529e-06
1.19166e-06
1.18824e-06
1.18554e-06
1.18392e-06
1.18326e-06
1.18336e-06
1.18424e-06
1.18611e-06
1.19166e-06
1.19612e-06
1.19071e-06
1.18905e-06
1.18937e-06
1.19102e-06
1.19603e-06
1.17e-06
1.16915e-06
1.16912e-06
1.16916e-06
1.16998e-06
1.16988e-06
1.17006e-06
1.16938e-06
1.169e-06
1.1676e-06
1.16758e-06
1.1676e-06
1.16916e-06
1.16942e-06
1.17007e-06
1.16938e-06
1.16899e-06
1.16765e-06
1.16759e-06
1.16764e-06
1.16759e-06
1.16765e-06
1.16914e-06
1.1694e-06
1.17005e-06
1.17e-06
1.169e-06
1.16765e-06
1.16759e-06
1.16762e-06
1.16761e-06
1.16762e-06
1.16759e-06
1.16765e-06
1.16913e-06
1.16941e-06
1.17011e-06
1.16915e-06
1.1676e-06
1.16759e-06
1.16762e-06
1.16759e-06
1.16759e-06
1.16759e-06
1.16762e-06
1.16759e-06
1.16761e-06
1.16956e-06
1.17024e-06
1.16912e-06
1.16758e-06
1.16764e-06
1.16761e-06
1.16759e-06
1.16758e-06
1.16759e-06
1.16761e-06
1.16764e-06
1.16758e-06
1.16957e-06
1.17014e-06
1.16916e-06
1.1676e-06
1.16759e-06
1.16762e-06
1.16759e-06
1.16759e-06
1.16759e-06
1.16762e-06
1.16759e-06
1.16761e-06
1.16957e-06
1.17017e-06
1.16998e-06
1.16916e-06
1.16765e-06
1.16759e-06
1.16762e-06
1.16761e-06
1.16762e-06
1.16759e-06
1.16765e-06
1.1693e-06
1.16947e-06
1.1702e-06
1.16988e-06
1.16942e-06
1.16914e-06
1.16765e-06
1.16759e-06
1.16764e-06
1.16759e-06
1.16765e-06
1.16927e-06
1.16944e-06
1.16946e-06
1.17007e-06
1.1694e-06
1.16913e-06
1.16761e-06
1.16758e-06
1.16761e-06
1.1693e-06
1.16944e-06
1.16951e-06
1.17018e-06
1.17005e-06
1.16941e-06
1.16956e-06
1.16957e-06
1.16957e-06
1.16947e-06
1.16946e-06
1.17018e-06
1.17011e-06
1.17024e-06
1.17014e-06
1.17017e-06
1.1702e-06
1.16005e-06
1.15918e-06
1.15912e-06
1.15917e-06
1.16003e-06
1.16008e-06
1.16008e-06
1.15932e-06
1.15887e-06
1.15751e-06
1.15751e-06
1.15751e-06
1.15903e-06
1.15934e-06
1.16006e-06
1.15932e-06
1.15886e-06
1.15756e-06
1.15756e-06
1.1576e-06
1.15756e-06
1.15756e-06
1.15903e-06
1.15934e-06
1.16006e-06
1.16005e-06
1.15887e-06
1.15756e-06
1.15757e-06
1.15763e-06
1.15763e-06
1.15763e-06
1.15757e-06
1.15756e-06
1.15904e-06
1.15939e-06
1.1601e-06
1.15918e-06
1.15751e-06
1.15756e-06
1.15763e-06
1.15764e-06
1.15766e-06
1.15764e-06
1.15763e-06
1.15756e-06
1.15751e-06
1.15944e-06
1.16023e-06
1.15912e-06
1.15751e-06
1.1576e-06
1.15763e-06
1.15766e-06
1.15766e-06
1.15766e-06
1.15763e-06
1.1576e-06
1.15751e-06
1.15944e-06
1.16024e-06
1.15917e-06
1.15751e-06
1.15756e-06
1.15763e-06
1.15764e-06
1.15766e-06
1.15764e-06
1.15763e-06
1.15756e-06
1.15751e-06
1.15944e-06
1.16024e-06
1.16003e-06
1.15903e-06
1.15756e-06
1.15757e-06
1.15763e-06
1.15763e-06
1.15763e-06
1.15757e-06
1.15756e-06
1.15923e-06
1.15943e-06
1.16023e-06
1.16008e-06
1.15934e-06
1.15903e-06
1.15756e-06
1.15756e-06
1.1576e-06
1.15756e-06
1.15756e-06
1.15921e-06
1.15937e-06
1.15947e-06
1.16006e-06
1.15934e-06
1.15904e-06
1.15751e-06
1.15751e-06
1.15751e-06
1.15923e-06
1.15937e-06
1.15945e-06
1.16021e-06
1.16006e-06
1.15939e-06
1.15944e-06
1.15944e-06
1.15944e-06
1.15943e-06
1.15947e-06
1.16021e-06
1.1601e-06
1.16023e-06
1.16024e-06
1.16024e-06
1.16023e-06
1.15013e-06
1.14925e-06
1.14919e-06
1.14924e-06
1.15011e-06
1.15017e-06
1.15016e-06
1.14938e-06
1.14892e-06
1.14754e-06
1.14754e-06
1.14754e-06
1.14907e-06
1.14939e-06
1.15014e-06
1.14938e-06
1.14889e-06
1.14756e-06
1.14758e-06
1.1476e-06
1.14758e-06
1.14756e-06
1.14905e-06
1.14939e-06
1.15014e-06
1.15013e-06
1.14892e-06
1.14756e-06
1.14759e-06
1.14762e-06
1.14763e-06
1.14762e-06
1.14759e-06
1.14756e-06
1.14907e-06
1.14947e-06
1.15019e-06
1.14925e-06
1.14754e-06
1.14758e-06
1.14762e-06
1.14764e-06
1.14766e-06
1.14764e-06
1.14762e-06
1.14758e-06
1.14754e-06
1.1495e-06
1.15031e-06
1.14919e-06
1.14754e-06
1.1476e-06
1.14763e-06
1.14766e-06
1.14766e-06
1.14766e-06
1.14763e-06
1.1476e-06
1.14754e-06
1.14949e-06
1.15032e-06
1.14924e-06
1.14754e-06
1.14758e-06
1.14762e-06
1.14764e-06
1.14766e-06
1.14764e-06
1.14762e-06
1.14758e-06
1.14754e-06
1.14949e-06
1.15032e-06
1.15011e-06
1.14907e-06
1.14756e-06
1.14759e-06
1.14762e-06
1.14763e-06
1.14762e-06
1.14759e-06
1.14756e-06
1.14927e-06
1.1495e-06
1.15031e-06
1.15017e-06
1.14939e-06
1.14905e-06
1.14756e-06
1.14758e-06
1.1476e-06
1.14758e-06
1.14756e-06
1.14924e-06
1.14943e-06
1.14956e-06
1.15014e-06
1.14939e-06
1.14907e-06
1.14754e-06
1.14754e-06
1.14754e-06
1.14927e-06
1.14943e-06
1.14953e-06
1.1503e-06
1.15014e-06
1.14947e-06
1.1495e-06
1.14949e-06
1.14949e-06
1.1495e-06
1.14956e-06
1.1503e-06
1.15019e-06
1.15031e-06
1.15032e-06
1.15032e-06
1.15031e-06
1.14021e-06
1.13933e-06
1.13926e-06
1.13931e-06
1.14019e-06
1.14025e-06
1.14025e-06
1.13946e-06
1.13899e-06
1.1376e-06
1.1376e-06
1.1376e-06
1.13913e-06
1.13947e-06
1.14022e-06
1.13946e-06
1.13895e-06
1.13761e-06
1.13762e-06
1.13763e-06
1.13762e-06
1.13761e-06
1.13911e-06
1.13946e-06
1.14022e-06
1.14021e-06
1.13899e-06
1.13761e-06
1.13763e-06
1.13765e-06
1.13765e-06
1.13765e-06
1.13763e-06
1.13761e-06
1.13913e-06
1.13954e-06
1.14027e-06
1.13933e-06
1.1376e-06
1.13762e-06
1.13765e-06
1.13766e-06
1.13767e-06
1.13766e-06
1.13765e-06
1.13762e-06
1.1376e-06
1.13958e-06
1.1404e-06
1.13926e-06
1.1376e-06
1.13763e-06
1.13765e-06
1.13767e-06
1.13768e-06
1.13767e-06
1.13765e-06
1.13763e-06
1.1376e-06
1.13956e-06
1.1404e-06
1.13931e-06
1.1376e-06
1.13762e-06
1.13765e-06
1.13766e-06
1.13767e-06
1.13766e-06
1.13765e-06
1.13762e-06
1.1376e-06
1.13957e-06
1.1404e-06
1.14019e-06
1.13913e-06
1.13761e-06
1.13763e-06
1.13765e-06
1.13765e-06
1.13765e-06
1.13763e-06
1.13761e-06
1.13934e-06
1.13958e-06
1.1404e-06
1.14025e-06
1.13947e-06
1.13911e-06
1.13761e-06
1.13762e-06
1.13763e-06
1.13762e-06
1.13761e-06
1.13931e-06
1.1395e-06
1.13964e-06
1.14022e-06
1.13946e-06
1.13913e-06
1.1376e-06
1.1376e-06
1.1376e-06
1.13934e-06
1.1395e-06
1.13961e-06
1.14038e-06
1.14022e-06
1.13954e-06
1.13958e-06
1.13956e-06
1.13957e-06
1.13958e-06
1.13964e-06
1.14038e-06
1.14027e-06
1.14039e-06
1.1404e-06
1.1404e-06
1.1404e-06
1.13029e-06
1.12941e-06
1.12934e-06
1.12939e-06
1.13027e-06
1.13033e-06
1.13032e-06
1.12954e-06
1.12906e-06
1.12767e-06
1.12767e-06
1.12767e-06
1.12921e-06
1.12954e-06
1.1303e-06
1.12954e-06
1.12903e-06
1.12767e-06
1.12768e-06
1.12768e-06
1.12768e-06
1.12767e-06
1.12918e-06
1.12954e-06
1.1303e-06
1.13029e-06
1.12906e-06
1.12767e-06
1.12768e-06
1.1277e-06
1.1277e-06
1.1277e-06
1.12768e-06
1.12767e-06
1.12921e-06
1.12962e-06
1.13035e-06
1.12941e-06
1.12767e-06
1.12768e-06
1.1277e-06
1.12771e-06
1.12771e-06
1.12771e-06
1.1277e-06
1.12768e-06
1.12767e-06
1.12965e-06
1.13047e-06
1.12934e-06
1.12767e-06
1.12768e-06
1.1277e-06
1.12771e-06
1.12771e-06
1.12771e-06
1.1277e-06
1.12768e-06
1.12767e-06
1.12964e-06
1.13048e-06
1.12939e-06
1.12767e-06
1.12768e-06
1.1277e-06
1.1277e-06
1.12771e-06
1.1277e-06
1.1277e-06
1.12768e-06
1.12767e-06
1.12964e-06
1.13048e-06
1.13027e-06
1.12921e-06
1.12767e-06
1.12768e-06
1.1277e-06
1.1277e-06
1.1277e-06
1.12768e-06
1.12767e-06
1.12941e-06
1.12966e-06
1.13048e-06
1.13033e-06
1.12954e-06
1.12918e-06
1.12767e-06
1.12768e-06
1.12768e-06
1.12768e-06
1.12767e-06
1.12938e-06
1.12958e-06
1.12972e-06
1.1303e-06
1.12954e-06
1.12921e-06
1.12767e-06
1.12767e-06
1.12767e-06
1.12941e-06
1.12958e-06
1.12969e-06
1.13046e-06
1.1303e-06
1.12962e-06
1.12965e-06
1.12964e-06
1.12964e-06
1.12966e-06
1.12972e-06
1.13046e-06
1.13035e-06
1.13047e-06
1.13048e-06
1.13048e-06
1.13048e-06
1.12037e-06
1.11949e-06
1.11942e-06
1.11947e-06
1.12035e-06
1.1204e-06
1.1204e-06
1.11961e-06
1.11914e-06
1.11774e-06
1.11774e-06
1.11774e-06
1.11928e-06
1.11962e-06
1.12038e-06
1.11961e-06
1.1191e-06
1.11774e-06
1.11775e-06
1.11775e-06
1.11775e-06
1.11774e-06
1.11926e-06
1.11962e-06
1.12038e-06
1.12037e-06
1.11914e-06
1.11774e-06
1.11775e-06
1.11776e-06
1.11776e-06
1.11776e-06
1.11775e-06
1.11774e-06
1.11928e-06
1.1197e-06
1.12043e-06
1.11949e-06
1.11774e-06
1.11775e-06
1.11776e-06
1.11776e-06
1.11776e-06
1.11776e-06
1.11776e-06
1.11775e-06
1.11774e-06
1.11973e-06
1.12055e-06
1.11942e-06
1.11774e-06
1.11775e-06
1.11776e-06
1.11776e-06
1.11777e-06
1.11776e-06
1.11776e-06
1.11775e-06
1.11774e-06
1.11971e-06
1.12056e-06
1.11947e-06
1.11774e-06
1.11775e-06
1.11776e-06
1.11776e-06
1.11777e-06
1.11776e-06
1.11776e-06
1.11775e-06
1.11774e-06
1.11972e-06
1.12056e-06
1.12035e-06
1.11928e-06
1.11774e-06
1.11775e-06
1.11776e-06
1.11776e-06
1.11776e-06
1.11775e-06
1.11774e-06
1.11949e-06
1.11974e-06
1.12055e-06
1.1204e-06
1.11962e-06
1.11926e-06
1.11774e-06
1.11775e-06
1.11775e-06
1.11775e-06
1.11774e-06
1.11945e-06
1.11965e-06
1.1198e-06
1.12038e-06
1.11962e-06
1.11928e-06
1.11774e-06
1.11774e-06
1.11774e-06
1.11949e-06
1.11965e-06
1.11977e-06
1.12054e-06
1.12038e-06
1.1197e-06
1.11973e-06
1.11971e-06
1.11972e-06
1.11974e-06
1.1198e-06
1.12054e-06
1.12043e-06
1.12055e-06
1.12056e-06
1.12056e-06
1.12055e-06
1.11045e-06
1.10956e-06
1.1095e-06
1.10954e-06
1.11043e-06
1.11048e-06
1.11048e-06
1.10969e-06
1.10921e-06
1.10782e-06
1.10782e-06
1.10782e-06
1.10936e-06
1.1097e-06
1.11046e-06
1.10969e-06
1.10918e-06
1.10782e-06
1.10782e-06
1.10782e-06
1.10782e-06
1.10782e-06
1.10934e-06
1.10969e-06
1.11046e-06
1.11045e-06
1.10921e-06
1.10782e-06
1.10782e-06
1.10782e-06
1.10783e-06
1.10782e-06
1.10782e-06
1.10782e-06
1.10936e-06
1.10978e-06
1.1105e-06
1.10956e-06
1.10782e-06
1.10782e-06
1.10782e-06
1.10783e-06
1.10783e-06
1.10783e-06
1.10782e-06
1.10782e-06
1.10782e-06
1.10981e-06
1.11063e-06
1.1095e-06
1.10782e-06
1.10782e-06
1.10783e-06
1.10783e-06
1.10783e-06
1.10783e-06
1.10783e-06
1.10782e-06
1.10782e-06
1.10979e-06
1.11063e-06
1.10954e-06
1.10782e-06
1.10782e-06
1.10782e-06
1.10783e-06
1.10783e-06
1.10783e-06
1.10782e-06
1.10782e-06
1.10782e-06
1.1098e-06
1.11064e-06
1.11043e-06
1.10936e-06
1.10782e-06
1.10782e-06
1.10782e-06
1.10783e-06
1.10782e-06
1.10782e-06
1.10782e-06
1.10956e-06
1.10981e-06
1.11063e-06
1.11048e-06
1.1097e-06
1.10934e-06
1.10782e-06
1.10782e-06
1.10782e-06
1.10782e-06
1.10782e-06
1.10953e-06
1.10973e-06
1.10987e-06
1.11046e-06
1.10969e-06
1.10936e-06
1.10782e-06
1.10782e-06
1.10782e-06
1.10956e-06
1.10973e-06
1.10985e-06
1.11062e-06
1.11046e-06
1.10978e-06
1.10981e-06
1.10979e-06
1.1098e-06
1.10981e-06
1.10987e-06
1.11062e-06
1.1105e-06
1.11063e-06
1.11063e-06
1.11064e-06
1.11063e-06
1.10053e-06
1.09964e-06
1.09957e-06
1.09962e-06
1.10051e-06
1.10056e-06
1.10056e-06
1.09977e-06
1.09929e-06
1.09789e-06
1.09789e-06
1.09789e-06
1.09944e-06
1.09977e-06
1.10053e-06
1.09977e-06
1.09925e-06
1.09789e-06
1.0979e-06
1.0979e-06
1.0979e-06
1.09789e-06
1.09941e-06
1.09977e-06
1.10054e-06
1.10053e-06
1.09929e-06
1.09789e-06
1.0979e-06
1.0979e-06
1.0979e-06
1.0979e-06
1.0979e-06
1.09789e-06
1.09944e-06
1.09985e-06
1.10058e-06
1.09964e-06
1.09789e-06
1.0979e-06
1.0979e-06
1.0979e-06
1.0979e-06
1.0979e-06
1.0979e-06
1.0979e-06
1.09789e-06
1.09988e-06
1.10071e-06
1.09957e-06
1.09789e-06
1.0979e-06
1.0979e-06
1.0979e-06
1.0979e-06
1.0979e-06
1.0979e-06
1.0979e-06
1.09789e-06
1.09987e-06
1.10071e-06
1.09962e-06
1.09789e-06
1.0979e-06
1.0979e-06
1.0979e-06
1.0979e-06
1.0979e-06
1.0979e-06
1.0979e-06
1.09789e-06
1.09987e-06
1.10071e-06
1.10051e-06
1.09944e-06
1.09789e-06
1.0979e-06
1.0979e-06
1.0979e-06
1.0979e-06
1.0979e-06
1.09789e-06
1.09964e-06
1.09989e-06
1.10071e-06
1.10056e-06
1.09977e-06
1.09941e-06
1.09789e-06
1.0979e-06
1.0979e-06
1.0979e-06
1.09789e-06
1.09961e-06
1.09981e-06
1.09995e-06
1.10053e-06
1.09977e-06
1.09944e-06
1.09789e-06
1.09789e-06
1.09789e-06
1.09964e-06
1.09981e-06
1.09993e-06
1.10069e-06
1.10054e-06
1.09985e-06
1.09988e-06
1.09987e-06
1.09987e-06
1.09989e-06
1.09995e-06
1.10069e-06
1.10058e-06
1.10071e-06
1.10071e-06
1.10071e-06
1.10071e-06
1.0906e-06
1.08972e-06
1.08965e-06
1.0897e-06
1.09058e-06
1.09064e-06
1.09064e-06
1.08984e-06
1.08937e-06
1.08797e-06
1.08797e-06
1.08797e-06
1.08951e-06
1.08985e-06
1.09061e-06
1.08984e-06
1.08933e-06
1.08797e-06
1.08797e-06
1.08797e-06
1.08797e-06
1.08797e-06
1.08949e-06
1.08985e-06
1.09062e-06
1.0906e-06
1.08937e-06
1.08797e-06
1.08797e-06
1.08797e-06
1.08797e-06
1.08797e-06
1.08797e-06
1.08797e-06
1.08951e-06
1.08993e-06
1.09066e-06
1.08972e-06
1.08797e-06
1.08797e-06
1.08797e-06
1.08797e-06
1.08797e-06
1.08797e-06
1.08797e-06
1.08797e-06
1.08797e-06
1.08996e-06
1.09078e-06
1.08965e-06
1.08797e-06
1.08797e-06
1.08797e-06
1.08797e-06
1.08797e-06
1.08797e-06
1.08797e-06
1.08797e-06
1.08797e-06
1.08994e-06
1.09079e-06
1.0897e-06
1.08797e-06
1.08797e-06
1.08797e-06
1.08797e-06
1.08797e-06
1.08797e-06
1.08797e-06
1.08797e-06
1.08797e-06
1.08995e-06
1.09079e-06
1.09058e-06
1.08951e-06
1.08797e-06
1.08797e-06
1.08797e-06
1.08797e-06
1.08797e-06
1.08797e-06
1.08797e-06
1.08972e-06
1.08997e-06
1.09079e-06
1.09064e-06
1.08985e-06
1.08949e-06
1.08797e-06
1.08797e-06
1.08797e-06
1.08797e-06
1.08797e-06
1.08968e-06
1.08988e-06
1.09003e-06
1.09061e-06
1.08985e-06
1.08951e-06
1.08797e-06
1.08797e-06
1.08797e-06
1.08972e-06
1.08988e-06
1.09e-06
1.09077e-06
1.09062e-06
1.08993e-06
1.08996e-06
1.08994e-06
1.08995e-06
1.08997e-06
1.09003e-06
1.09077e-06
1.09066e-06
1.09078e-06
1.09079e-06
1.09079e-06
1.09079e-06
1.08068e-06
1.0798e-06
1.07973e-06
1.07978e-06
1.08066e-06
1.08071e-06
1.08071e-06
1.07992e-06
1.07944e-06
1.07805e-06
1.07805e-06
1.07805e-06
1.07959e-06
1.07993e-06
1.08069e-06
1.07992e-06
1.07941e-06
1.07805e-06
1.07805e-06
1.07805e-06
1.07805e-06
1.07805e-06
1.07957e-06
1.07992e-06
1.08069e-06
1.08068e-06
1.07944e-06
1.07805e-06
1.07805e-06
1.07805e-06
1.07805e-06
1.07805e-06
1.07805e-06
1.07805e-06
1.07959e-06
1.08001e-06
1.08073e-06
1.0798e-06
1.07805e-06
1.07805e-06
1.07805e-06
1.07805e-06
1.07805e-06
1.07805e-06
1.07805e-06
1.07805e-06
1.07805e-06
1.08004e-06
1.08086e-06
1.07973e-06
1.07805e-06
1.07805e-06
1.07805e-06
1.07805e-06
1.07805e-06
1.07805e-06
1.07805e-06
1.07805e-06
1.07805e-06
1.08002e-06
1.08087e-06
1.07978e-06
1.07805e-06
1.07805e-06
1.07805e-06
1.07805e-06
1.07805e-06
1.07805e-06
1.07805e-06
1.07805e-06
1.07805e-06
1.08003e-06
1.08087e-06
1.08066e-06
1.07959e-06
1.07805e-06
1.07805e-06
1.07805e-06
1.07805e-06
1.07805e-06
1.07805e-06
1.07805e-06
1.07979e-06
1.08005e-06
1.08086e-06
1.08071e-06
1.07993e-06
1.07957e-06
1.07805e-06
1.07805e-06
1.07805e-06
1.07805e-06
1.07805e-06
1.07976e-06
1.07996e-06
1.08011e-06
1.08069e-06
1.07992e-06
1.07959e-06
1.07805e-06
1.07805e-06
1.07805e-06
1.07979e-06
1.07996e-06
1.08008e-06
1.08085e-06
1.08069e-06
1.08001e-06
1.08004e-06
1.08002e-06
1.08003e-06
1.08005e-06
1.08011e-06
1.08085e-06
1.08073e-06
1.08086e-06
1.08087e-06
1.08087e-06
1.08086e-06
1.07076e-06
1.06987e-06
1.0698e-06
1.06985e-06
1.07074e-06
1.07079e-06
1.07079e-06
1.07e-06
1.06952e-06
1.06812e-06
1.06812e-06
1.06812e-06
1.06967e-06
1.07e-06
1.07077e-06
1.07e-06
1.06949e-06
1.06812e-06
1.06812e-06
1.06812e-06
1.06812e-06
1.06812e-06
1.06964e-06
1.07e-06
1.07077e-06
1.07076e-06
1.06952e-06
1.06812e-06
1.06812e-06
1.06812e-06
1.06812e-06
1.06812e-06
1.06812e-06
1.06812e-06
1.06967e-06
1.07009e-06
1.07081e-06
1.06987e-06
1.06812e-06
1.06812e-06
1.06812e-06
1.06812e-06
1.06812e-06
1.06812e-06
1.06812e-06
1.06812e-06
1.06812e-06
1.07012e-06
1.07094e-06
1.0698e-06
1.06812e-06
1.06812e-06
1.06812e-06
1.06812e-06
1.06812e-06
1.06812e-06
1.06812e-06
1.06812e-06
1.06812e-06
1.0701e-06
1.07094e-06
1.06985e-06
1.06812e-06
1.06812e-06
1.06812e-06
1.06812e-06
1.06812e-06
1.06812e-06
1.06812e-06
1.06812e-06
1.06812e-06
1.07011e-06
1.07094e-06
1.07074e-06
1.06967e-06
1.06812e-06
1.06812e-06
1.06812e-06
1.06812e-06
1.06812e-06
1.06812e-06
1.06812e-06
1.06987e-06
1.07012e-06
1.07094e-06
1.07079e-06
1.07e-06
1.06964e-06
1.06812e-06
1.06812e-06
1.06812e-06
1.06812e-06
1.06812e-06
1.06984e-06
1.07004e-06
1.07018e-06
1.07077e-06
1.07e-06
1.06967e-06
1.06812e-06
1.06812e-06
1.06812e-06
1.06987e-06
1.07004e-06
1.07016e-06
1.07093e-06
1.07077e-06
1.07009e-06
1.07012e-06
1.0701e-06
1.07011e-06
1.07012e-06
1.07018e-06
1.07093e-06
1.07081e-06
1.07094e-06
1.07094e-06
1.07094e-06
1.07094e-06
1.06084e-06
1.05995e-06
1.05988e-06
1.05993e-06
1.06082e-06
1.06087e-06
1.06087e-06
1.06008e-06
1.0596e-06
1.0582e-06
1.0582e-06
1.0582e-06
1.05974e-06
1.06008e-06
1.06084e-06
1.06008e-06
1.05956e-06
1.0582e-06
1.0582e-06
1.0582e-06
1.0582e-06
1.0582e-06
1.05972e-06
1.06008e-06
1.06085e-06
1.06083e-06
1.0596e-06
1.0582e-06
1.0582e-06
1.0582e-06
1.0582e-06
1.0582e-06
1.0582e-06
1.0582e-06
1.05974e-06
1.06016e-06
1.06089e-06
1.05995e-06
1.0582e-06
1.0582e-06
1.0582e-06
1.0582e-06
1.0582e-06
1.0582e-06
1.0582e-06
1.0582e-06
1.0582e-06
1.06019e-06
1.06102e-06
1.05988e-06
1.0582e-06
1.0582e-06
1.0582e-06
1.0582e-06
1.0582e-06
1.0582e-06
1.0582e-06
1.0582e-06
1.0582e-06
1.06018e-06
1.06102e-06
1.05993e-06
1.0582e-06
1.0582e-06
1.0582e-06
1.0582e-06
1.0582e-06
1.0582e-06
1.0582e-06
1.0582e-06
1.0582e-06
1.06018e-06
1.06102e-06
1.06082e-06
1.05974e-06
1.0582e-06
1.0582e-06
1.0582e-06
1.0582e-06
1.0582e-06
1.0582e-06
1.0582e-06
1.05995e-06
1.0602e-06
1.06102e-06
1.06087e-06
1.06008e-06
1.05972e-06
1.0582e-06
1.0582e-06
1.0582e-06
1.0582e-06
1.0582e-06
1.05991e-06
1.06012e-06
1.06026e-06
1.06084e-06
1.06008e-06
1.05974e-06
1.0582e-06
1.0582e-06
1.0582e-06
1.05995e-06
1.06012e-06
1.06024e-06
1.061e-06
1.06085e-06
1.06016e-06
1.06019e-06
1.06018e-06
1.06018e-06
1.0602e-06
1.06026e-06
1.061e-06
1.06089e-06
1.06102e-06
1.06102e-06
1.06102e-06
1.06102e-06
1.05091e-06
1.05003e-06
1.04996e-06
1.05001e-06
1.05089e-06
1.05095e-06
1.05094e-06
1.05015e-06
1.04967e-06
1.04828e-06
1.04828e-06
1.04828e-06
1.04982e-06
1.05016e-06
1.05092e-06
1.05015e-06
1.04964e-06
1.04828e-06
1.04828e-06
1.04828e-06
1.04828e-06
1.04828e-06
1.0498e-06
1.05016e-06
1.05092e-06
1.05091e-06
1.04967e-06
1.04828e-06
1.04828e-06
1.04828e-06
1.04828e-06
1.04828e-06
1.04828e-06
1.04828e-06
1.04982e-06
1.05024e-06
1.05097e-06
1.05003e-06
1.04828e-06
1.04828e-06
1.04828e-06
1.04828e-06
1.04828e-06
1.04828e-06
1.04828e-06
1.04828e-06
1.04828e-06
1.05027e-06
1.05109e-06
1.04996e-06
1.04828e-06
1.04828e-06
1.04828e-06
1.04828e-06
1.04828e-06
1.04828e-06
1.04828e-06
1.04828e-06
1.04828e-06
1.05025e-06
1.0511e-06
1.05001e-06
1.04828e-06
1.04828e-06
1.04828e-06
1.04828e-06
1.04828e-06
1.04828e-06
1.04828e-06
1.04828e-06
1.04828e-06
1.05026e-06
1.0511e-06
1.05089e-06
1.04982e-06
1.04828e-06
1.04828e-06
1.04828e-06
1.04828e-06
1.04828e-06
1.04828e-06
1.04828e-06
1.05003e-06
1.05028e-06
1.05109e-06
1.05095e-06
1.05016e-06
1.0498e-06
1.04828e-06
1.04828e-06
1.04828e-06
1.04828e-06
1.04828e-06
1.04999e-06
1.05019e-06
1.05034e-06
1.05092e-06
1.05016e-06
1.04982e-06
1.04828e-06
1.04828e-06
1.04828e-06
1.05003e-06
1.05019e-06
1.05031e-06
1.05108e-06
1.05092e-06
1.05024e-06
1.05027e-06
1.05025e-06
1.05026e-06
1.05028e-06
1.05034e-06
1.05108e-06
1.05097e-06
1.05109e-06
1.0511e-06
1.0511e-06
1.05109e-06
1.04099e-06
1.0401e-06
1.04004e-06
1.04008e-06
1.04097e-06
1.04102e-06
1.04102e-06
1.04023e-06
1.03975e-06
1.03835e-06
1.03835e-06
1.03835e-06
1.0399e-06
1.04024e-06
1.041e-06
1.04023e-06
1.03972e-06
1.03835e-06
1.03835e-06
1.03835e-06
1.03835e-06
1.03835e-06
1.03987e-06
1.04023e-06
1.041e-06
1.04099e-06
1.03975e-06
1.03835e-06
1.03835e-06
1.03835e-06
1.03835e-06
1.03835e-06
1.03835e-06
1.03835e-06
1.0399e-06
1.04032e-06
1.04104e-06
1.0401e-06
1.03835e-06
1.03835e-06
1.03835e-06
1.03836e-06
1.03835e-06
1.03836e-06
1.03835e-06
1.03835e-06
1.03835e-06
1.04035e-06
1.04117e-06
1.04004e-06
1.03835e-06
1.03835e-06
1.03835e-06
1.03835e-06
1.03835e-06
1.03835e-06
1.03835e-06
1.03835e-06
1.03835e-06
1.04033e-06
1.04117e-06
1.04008e-06
1.03835e-06
1.03835e-06
1.03835e-06
1.03836e-06
1.03835e-06
1.03836e-06
1.03835e-06
1.03835e-06
1.03835e-06
1.04034e-06
1.04118e-06
1.04097e-06
1.0399e-06
1.03835e-06
1.03835e-06
1.03835e-06
1.03835e-06
1.03835e-06
1.03835e-06
1.03835e-06
1.0401e-06
1.04035e-06
1.04117e-06
1.04102e-06
1.04024e-06
1.03987e-06
1.03835e-06
1.03835e-06
1.03835e-06
1.03835e-06
1.03835e-06
1.04007e-06
1.04027e-06
1.04041e-06
1.041e-06
1.04023e-06
1.0399e-06
1.03835e-06
1.03835e-06
1.03835e-06
1.0401e-06
1.04027e-06
1.04039e-06
1.04116e-06
1.041e-06
1.04032e-06
1.04035e-06
1.04033e-06
1.04034e-06
1.04035e-06
1.04041e-06
1.04116e-06
1.04104e-06
1.04117e-06
1.04117e-06
1.04118e-06
1.04117e-06
1.03107e-06
1.03018e-06
1.03011e-06
1.03016e-06
1.03105e-06
1.0311e-06
1.0311e-06
1.03031e-06
1.02983e-06
1.02843e-06
1.02843e-06
1.02843e-06
1.02998e-06
1.03031e-06
1.03107e-06
1.03031e-06
1.02979e-06
1.02843e-06
1.02843e-06
1.02843e-06
1.02843e-06
1.02843e-06
1.02995e-06
1.03031e-06
1.03108e-06
1.03107e-06
1.02983e-06
1.02843e-06
1.02843e-06
1.02843e-06
1.02843e-06
1.02843e-06
1.02843e-06
1.02843e-06
1.02998e-06
1.03039e-06
1.03112e-06
1.03018e-06
1.02843e-06
1.02843e-06
1.02843e-06
1.02843e-06
1.02843e-06
1.02843e-06
1.02843e-06
1.02843e-06
1.02843e-06
1.03042e-06
1.03125e-06
1.03011e-06
1.02843e-06
1.02843e-06
1.02843e-06
1.02843e-06
1.02843e-06
1.02843e-06
1.02843e-06
1.02843e-06
1.02843e-06
1.03041e-06
1.03125e-06
1.03016e-06
1.02843e-06
1.02843e-06
1.02843e-06
1.02843e-06
1.02843e-06
1.02843e-06
1.02843e-06
1.02843e-06
1.02843e-06
1.03041e-06
1.03125e-06
1.03105e-06
1.02998e-06
1.02843e-06
1.02843e-06
1.02843e-06
1.02843e-06
1.02843e-06
1.02843e-06
1.02843e-06
1.03018e-06
1.03043e-06
1.03125e-06
1.0311e-06
1.03031e-06
1.02995e-06
1.02843e-06
1.02843e-06
1.02843e-06
1.02843e-06
1.02843e-06
1.03015e-06
1.03035e-06
1.03049e-06
1.03107e-06
1.03031e-06
1.02998e-06
1.02843e-06
1.02843e-06
1.02843e-06
1.03018e-06
1.03035e-06
1.03047e-06
1.03123e-06
1.03108e-06
1.03039e-06
1.03042e-06
1.03041e-06
1.03041e-06
1.03043e-06
1.03049e-06
1.03123e-06
1.03112e-06
1.03125e-06
1.03125e-06
1.03125e-06
1.03125e-06
1.02114e-06
1.02026e-06
1.02019e-06
1.02024e-06
1.02112e-06
1.02118e-06
1.02118e-06
1.02038e-06
1.01991e-06
1.01851e-06
1.01851e-06
1.01851e-06
1.02005e-06
1.02039e-06
1.02115e-06
1.02038e-06
1.01987e-06
1.01851e-06
1.01851e-06
1.01851e-06
1.01851e-06
1.01851e-06
1.02003e-06
1.02039e-06
1.02115e-06
1.02114e-06
1.01991e-06
1.01851e-06
1.01851e-06
1.01851e-06
1.01851e-06
1.01851e-06
1.01851e-06
1.01851e-06
1.02005e-06
1.02047e-06
1.0212e-06
1.02026e-06
1.01851e-06
1.01851e-06
1.01851e-06
1.01851e-06
1.01851e-06
1.01851e-06
1.01851e-06
1.01851e-06
1.01851e-06
1.0205e-06
1.02132e-06
1.02019e-06
1.01851e-06
1.01851e-06
1.01851e-06
1.01851e-06
1.01851e-06
1.01851e-06
1.01851e-06
1.01851e-06
1.01851e-06
1.02048e-06
1.02133e-06
1.02024e-06
1.01851e-06
1.01851e-06
1.01851e-06
1.01851e-06
1.01851e-06
1.01851e-06
1.01851e-06
1.01851e-06
1.01851e-06
1.02049e-06
1.02133e-06
1.02112e-06
1.02005e-06
1.01851e-06
1.01851e-06
1.01851e-06
1.01851e-06
1.01851e-06
1.01851e-06
1.01851e-06
1.02026e-06
1.02051e-06
1.02132e-06
1.02118e-06
1.02039e-06
1.02003e-06
1.01851e-06
1.01851e-06
1.01851e-06
1.01851e-06
1.01851e-06
1.02022e-06
1.02042e-06
1.02057e-06
1.02115e-06
1.02039e-06
1.02005e-06
1.01851e-06
1.01851e-06
1.01851e-06
1.02026e-06
1.02042e-06
1.02054e-06
1.02131e-06
1.02115e-06
1.02047e-06
1.0205e-06
1.02048e-06
1.02049e-06
1.02051e-06
1.02057e-06
1.02131e-06
1.0212e-06
1.02132e-06
1.02133e-06
1.02133e-06
1.02132e-06
1.01122e-06
1.01034e-06
1.01027e-06
1.01032e-06
1.0112e-06
1.01125e-06
1.01125e-06
1.01046e-06
1.00998e-06
1.00858e-06
1.00859e-06
1.00858e-06
1.01013e-06
1.01047e-06
1.01123e-06
1.01046e-06
1.00995e-06
1.00859e-06
1.00859e-06
1.00859e-06
1.00859e-06
1.00859e-06
1.01011e-06
1.01046e-06
1.01123e-06
1.01122e-06
1.00998e-06
1.00859e-06
1.00859e-06
1.00859e-06
1.00859e-06
1.00859e-06
1.00859e-06
1.00859e-06
1.01013e-06
1.01055e-06
1.01127e-06
1.01034e-06
1.00858e-06
1.00859e-06
1.00859e-06
1.00859e-06
1.00859e-06
1.00859e-06
1.00859e-06
1.00859e-06
1.00858e-06
1.01058e-06
1.0114e-06
1.01027e-06
1.00859e-06
1.00859e-06
1.00859e-06
1.00859e-06
1.00859e-06
1.00859e-06
1.00859e-06
1.00859e-06
1.00859e-06
1.01056e-06
1.0114e-06
1.01032e-06
1.00858e-06
1.00859e-06
1.00859e-06
1.00859e-06
1.00859e-06
1.00859e-06
1.00859e-06
1.00859e-06
1.00858e-06
1.01057e-06
1.01141e-06
1.0112e-06
1.01013e-06
1.00859e-06
1.00859e-06
1.00859e-06
1.00859e-06
1.00859e-06
1.00859e-06
1.00859e-06
1.01033e-06
1.01059e-06
1.0114e-06
1.01125e-06
1.01047e-06
1.01011e-06
1.00859e-06
1.00859e-06
1.00859e-06
1.00859e-06
1.00859e-06
1.0103e-06
1.0105e-06
1.01065e-06
1.01123e-06
1.01046e-06
1.01013e-06
1.00858e-06
1.00859e-06
1.00858e-06
1.01033e-06
1.0105e-06
1.01062e-06
1.01139e-06
1.01123e-06
1.01055e-06
1.01058e-06
1.01056e-06
1.01057e-06
1.01059e-06
1.01065e-06
1.01139e-06
1.01127e-06
1.0114e-06
1.0114e-06
1.01141e-06
1.0114e-06
1.0013e-06
1.00041e-06
1.00034e-06
1.00039e-06
1.00128e-06
1.00133e-06
1.00133e-06
1.00054e-06
1.00006e-06
9.98662e-07
9.98662e-07
9.98662e-07
1.00021e-06
1.00054e-06
1.00131e-06
1.00054e-06
1.00002e-06
9.98662e-07
9.98663e-07
9.98662e-07
9.98663e-07
9.98662e-07
1.00018e-06
1.00054e-06
1.00131e-06
1.0013e-06
1.00006e-06
9.98662e-07
9.98663e-07
9.98662e-07
9.98662e-07
9.98662e-07
9.98663e-07
9.98662e-07
1.00021e-06
1.00063e-06
1.00135e-06
1.00041e-06
9.98662e-07
9.98663e-07
9.98662e-07
9.98663e-07
9.98662e-07
9.98663e-07
9.98662e-07
9.98663e-07
9.98662e-07
1.00065e-06
1.00148e-06
1.00034e-06
9.98662e-07
9.98662e-07
9.98662e-07
9.98662e-07
9.98662e-07
9.98662e-07
9.98662e-07
9.98662e-07
9.98662e-07
1.00064e-06
1.00148e-06
1.00039e-06
9.98662e-07
9.98663e-07
9.98662e-07
9.98663e-07
9.98662e-07
9.98663e-07
9.98662e-07
9.98663e-07
9.98662e-07
1.00065e-06
1.00148e-06
1.00128e-06
1.00021e-06
9.98662e-07
9.98663e-07
9.98662e-07
9.98662e-07
9.98662e-07
9.98663e-07
9.98662e-07
1.00041e-06
1.00066e-06
1.00148e-06
1.00133e-06
1.00054e-06
1.00018e-06
9.98662e-07
9.98663e-07
9.98662e-07
9.98663e-07
9.98662e-07
1.00038e-06
1.00058e-06
1.00072e-06
1.00131e-06
1.00054e-06
1.00021e-06
9.98662e-07
9.98662e-07
9.98662e-07
1.00041e-06
1.00058e-06
1.0007e-06
1.00146e-06
1.00131e-06
1.00063e-06
1.00065e-06
1.00064e-06
1.00065e-06
1.00066e-06
1.00072e-06
1.00146e-06
1.00135e-06
1.00148e-06
1.00148e-06
1.00148e-06
1.00148e-06
9.91374e-07
9.90489e-07
9.9042e-07
9.90469e-07
9.91355e-07
9.91407e-07
9.91407e-07
9.90615e-07
9.90136e-07
9.88739e-07
9.88739e-07
9.88739e-07
9.90283e-07
9.90621e-07
9.91382e-07
9.90615e-07
9.90102e-07
9.88739e-07
9.8874e-07
9.88739e-07
9.8874e-07
9.88739e-07
9.9026e-07
9.90618e-07
9.91386e-07
9.91374e-07
9.90136e-07
9.88739e-07
9.8874e-07
9.88739e-07
9.88739e-07
9.88739e-07
9.8874e-07
9.88739e-07
9.90284e-07
9.90702e-07
9.91428e-07
9.90489e-07
9.88739e-07
9.8874e-07
9.88739e-07
9.8874e-07
9.88739e-07
9.8874e-07
9.88739e-07
9.8874e-07
9.88739e-07
9.90732e-07
9.91555e-07
9.9042e-07
9.88739e-07
9.88739e-07
9.88739e-07
9.88739e-07
9.88739e-07
9.88739e-07
9.88739e-07
9.88739e-07
9.88739e-07
9.90715e-07
9.91559e-07
9.90469e-07
9.88739e-07
9.8874e-07
9.88739e-07
9.8874e-07
9.88739e-07
9.8874e-07
9.88739e-07
9.8874e-07
9.88739e-07
9.90722e-07
9.9156e-07
9.91355e-07
9.90283e-07
9.88739e-07
9.8874e-07
9.88739e-07
9.88739e-07
9.88739e-07
9.8874e-07
9.88739e-07
9.90488e-07
9.90739e-07
9.91556e-07
9.91407e-07
9.90621e-07
9.9026e-07
9.88739e-07
9.8874e-07
9.88739e-07
9.8874e-07
9.88739e-07
9.90454e-07
9.90655e-07
9.90799e-07
9.91382e-07
9.90618e-07
9.90284e-07
9.88739e-07
9.88739e-07
9.88739e-07
9.90488e-07
9.90655e-07
9.90775e-07
9.91542e-07
9.91386e-07
9.90702e-07
9.90732e-07
9.90715e-07
9.90722e-07
9.90739e-07
9.90799e-07
9.91542e-07
9.91428e-07
9.91555e-07
9.91559e-07
9.9156e-07
9.91556e-07
9.81451e-07
9.80566e-07
9.80497e-07
9.80546e-07
9.81432e-07
9.81484e-07
9.81484e-07
9.80692e-07
9.80213e-07
9.78816e-07
9.78816e-07
9.78816e-07
9.8036e-07
9.80698e-07
9.81459e-07
9.80692e-07
9.80179e-07
9.78816e-07
9.78817e-07
9.78816e-07
9.78817e-07
9.78816e-07
9.80337e-07
9.80695e-07
9.81463e-07
9.81451e-07
9.80213e-07
9.78816e-07
9.78817e-07
9.78816e-07
9.78816e-07
9.78816e-07
9.78817e-07
9.78816e-07
9.80361e-07
9.80779e-07
9.81506e-07
9.80566e-07
9.78816e-07
9.78817e-07
9.78816e-07
9.78817e-07
9.78816e-07
9.78817e-07
9.78816e-07
9.78817e-07
9.78816e-07
9.80809e-07
9.81632e-07
9.80497e-07
9.78816e-07
9.78816e-07
9.78817e-07
9.78816e-07
9.78817e-07
9.78816e-07
9.78817e-07
9.78816e-07
9.78816e-07
9.80792e-07
9.81636e-07
9.80547e-07
9.78816e-07
9.78817e-07
9.78816e-07
9.78817e-07
9.78816e-07
9.78817e-07
9.78816e-07
9.78817e-07
9.78816e-07
9.80799e-07