/*--------------------------------*- C++ -*----------------------------------*\
| =========                 |                                                 |
| \\      /  F ield         | OpenFOAM: The Open Source CFD Toolbox           |
|  \\    /   O peration     | Version:  v2012                                 |
|   \\  /    A nd           | Website:  www.openfoam.com                      |
|    \\/     M anipulation  |                                                 |
\*---------------------------------------------------------------------------*/
FoamFile
{
    version     2.0;
    format      ascii;
    class       volScalarField;
    location    "42";
    object      p;
}
// * * * * * * * * * * * * * * * * * * * * * * * * * * * * * * * * * * * * * //

dimensions      [0 2 -2 0 0 0 0];


internalField   nonuniform List<scalar> 
292667
(
1.27257e-06
1.2628e-06
1.26199e-06
1.26207e-06
1.26319e-06
1.2735e-06
1.26301e-06
1.26017e-06
1.25852e-06
1.25784e-06
1.25793e-06
1.25882e-06
1.26072e-06
1.26383e-06
1.26301e-06
1.25934e-06
1.25706e-06
1.25581e-06
1.25529e-06
1.25536e-06
1.25604e-06
1.25749e-06
1.26007e-06
1.26408e-06
1.27257e-06
1.26017e-06
1.25706e-06
1.25522e-06
1.2542e-06
1.25375e-06
1.25381e-06
1.25439e-06
1.25558e-06
1.25767e-06
1.26117e-06
1.27232e-06
1.2628e-06
1.25852e-06
1.25581e-06
1.25419e-06
1.25328e-06
1.25288e-06
1.25293e-06
1.25345e-06
1.25452e-06
1.25636e-06
1.25943e-06
1.26667e-06
1.26199e-06
1.25784e-06
1.25529e-06
1.25375e-06
1.25288e-06
1.2525e-06
1.25255e-06
1.25305e-06
1.25406e-06
1.2558e-06
1.25872e-06
1.26491e-06
1.26207e-06
1.25793e-06
1.25536e-06
1.25381e-06
1.25293e-06
1.25255e-06
1.25261e-06
1.2531e-06
1.25413e-06
1.25588e-06
1.25882e-06
1.26524e-06
1.26319e-06
1.25882e-06
1.25604e-06
1.25439e-06
1.25345e-06
1.25305e-06
1.2531e-06
1.25363e-06
1.25472e-06
1.25661e-06
1.25977e-06
1.26701e-06
1.2735e-06
1.26072e-06
1.25749e-06
1.25558e-06
1.25452e-06
1.25406e-06
1.25413e-06
1.25472e-06
1.25597e-06
1.25816e-06
1.26178e-06
1.27227e-06
1.26383e-06
1.26007e-06
1.25767e-06
1.25636e-06
1.2558e-06
1.25588e-06
1.25661e-06
1.25816e-06
1.26088e-06
1.2676e-06
1.26408e-06
1.26117e-06
1.25943e-06
1.25872e-06
1.25882e-06
1.25977e-06
1.26178e-06
1.2676e-06
1.27232e-06
1.26667e-06
1.26491e-06
1.26524e-06
1.26701e-06
1.27227e-06
1.24467e-06
1.24369e-06
1.24366e-06
1.2437e-06
1.24461e-06
1.24453e-06
1.24473e-06
1.24396e-06
1.24355e-06
1.24202e-06
1.242e-06
1.24202e-06
1.2437e-06
1.24397e-06
1.24472e-06
1.24396e-06
1.24356e-06
1.24207e-06
1.242e-06
1.24205e-06
1.242e-06
1.24207e-06
1.24368e-06
1.24395e-06
1.24469e-06
1.24467e-06
1.24355e-06
1.24207e-06
1.242e-06
1.24204e-06
1.24203e-06
1.24204e-06
1.242e-06
1.24207e-06
1.24366e-06
1.24397e-06
1.24478e-06
1.24369e-06
1.24202e-06
1.242e-06
1.24204e-06
1.242e-06
1.242e-06
1.242e-06
1.24204e-06
1.242e-06
1.24202e-06
1.24409e-06
1.24488e-06
1.24366e-06
1.242e-06
1.24205e-06
1.24203e-06
1.242e-06
1.242e-06
1.242e-06
1.24203e-06
1.24205e-06
1.242e-06
1.24409e-06
1.24475e-06
1.2437e-06
1.24202e-06
1.242e-06
1.24204e-06
1.242e-06
1.242e-06
1.242e-06
1.24204e-06
1.242e-06
1.24202e-06
1.2441e-06
1.24479e-06
1.24461e-06
1.2437e-06
1.24207e-06
1.242e-06
1.24204e-06
1.24203e-06
1.24204e-06
1.242e-06
1.24207e-06
1.24382e-06
1.24401e-06
1.24485e-06
1.24453e-06
1.24397e-06
1.24368e-06
1.24207e-06
1.242e-06
1.24205e-06
1.242e-06
1.24207e-06
1.24378e-06
1.24397e-06
1.24401e-06
1.24472e-06
1.24395e-06
1.24366e-06
1.24202e-06
1.242e-06
1.24202e-06
1.24382e-06
1.24397e-06
1.24408e-06
1.24484e-06
1.24469e-06
1.24397e-06
1.24409e-06
1.24409e-06
1.2441e-06
1.24401e-06
1.24401e-06
1.24484e-06
1.24478e-06
1.24488e-06
1.24475e-06
1.24479e-06
1.24485e-06
1.23407e-06
1.23311e-06
1.23304e-06
1.23309e-06
1.23403e-06
1.23409e-06
1.23411e-06
1.23326e-06
1.23279e-06
1.23129e-06
1.23128e-06
1.23129e-06
1.23294e-06
1.23327e-06
1.23406e-06
1.23326e-06
1.23278e-06
1.23134e-06
1.23133e-06
1.23138e-06
1.23133e-06
1.23134e-06
1.23294e-06
1.23327e-06
1.23406e-06
1.23407e-06
1.23279e-06
1.23134e-06
1.23135e-06
1.23141e-06
1.23141e-06
1.23141e-06
1.23135e-06
1.23134e-06
1.23294e-06
1.23332e-06
1.23412e-06
1.23311e-06
1.23129e-06
1.23134e-06
1.23141e-06
1.23142e-06
1.23144e-06
1.23142e-06
1.23141e-06
1.23134e-06
1.23129e-06
1.23336e-06
1.23424e-06
1.23304e-06
1.23128e-06
1.23138e-06
1.23141e-06
1.23144e-06
1.23145e-06
1.23144e-06
1.23141e-06
1.23138e-06
1.23128e-06
1.23335e-06
1.23424e-06
1.23309e-06
1.23129e-06
1.23133e-06
1.23141e-06
1.23142e-06
1.23144e-06
1.23142e-06
1.23141e-06
1.23133e-06
1.23129e-06
1.23335e-06
1.23424e-06
1.23403e-06
1.23294e-06
1.23134e-06
1.23135e-06
1.23141e-06
1.23141e-06
1.23141e-06
1.23135e-06
1.23134e-06
1.23312e-06
1.23335e-06
1.23424e-06
1.23409e-06
1.23327e-06
1.23294e-06
1.23134e-06
1.23134e-06
1.23138e-06
1.23134e-06
1.23134e-06
1.2331e-06
1.23328e-06
1.2334e-06
1.23406e-06
1.23327e-06
1.23294e-06
1.23129e-06
1.23128e-06
1.23129e-06
1.23312e-06
1.23328e-06
1.23338e-06
1.23423e-06
1.23406e-06
1.23332e-06
1.23336e-06
1.23335e-06
1.23335e-06
1.23335e-06
1.2334e-06
1.23423e-06
1.23412e-06
1.23424e-06
1.23424e-06
1.23424e-06
1.23424e-06
1.22352e-06
1.22255e-06
1.22248e-06
1.22253e-06
1.22348e-06
1.22355e-06
1.22356e-06
1.22269e-06
1.2222e-06
1.22068e-06
1.22068e-06
1.22068e-06
1.22234e-06
1.22269e-06
1.22352e-06
1.22269e-06
1.22218e-06
1.22071e-06
1.22072e-06
1.22074e-06
1.22072e-06
1.22071e-06
1.22233e-06
1.22269e-06
1.22352e-06
1.22352e-06
1.2222e-06
1.22071e-06
1.22073e-06
1.22077e-06
1.22077e-06
1.22077e-06
1.22073e-06
1.22071e-06
1.22235e-06
1.22276e-06
1.22358e-06
1.22255e-06
1.22068e-06
1.22072e-06
1.22077e-06
1.22079e-06
1.2208e-06
1.22079e-06
1.22077e-06
1.22072e-06
1.22068e-06
1.22278e-06
1.22369e-06
1.22248e-06
1.22068e-06
1.22074e-06
1.22077e-06
1.2208e-06
1.22081e-06
1.2208e-06
1.22077e-06
1.22074e-06
1.22068e-06
1.22277e-06
1.22369e-06
1.22253e-06
1.22068e-06
1.22072e-06
1.22077e-06
1.22079e-06
1.2208e-06
1.22079e-06
1.22077e-06
1.22072e-06
1.22068e-06
1.22278e-06
1.22369e-06
1.22348e-06
1.22234e-06
1.22071e-06
1.22073e-06
1.22077e-06
1.22077e-06
1.22077e-06
1.22073e-06
1.22071e-06
1.22254e-06
1.22279e-06
1.2237e-06
1.22355e-06
1.22269e-06
1.22233e-06
1.22071e-06
1.22072e-06
1.22074e-06
1.22072e-06
1.22071e-06
1.22251e-06
1.22271e-06
1.22286e-06
1.22352e-06
1.22269e-06
1.22235e-06
1.22068e-06
1.22068e-06
1.22068e-06
1.22254e-06
1.22271e-06
1.22283e-06
1.22368e-06
1.22352e-06
1.22276e-06
1.22278e-06
1.22277e-06
1.22278e-06
1.22279e-06
1.22286e-06
1.22368e-06
1.22358e-06
1.22369e-06
1.22369e-06
1.22369e-06
1.2237e-06
1.21297e-06
1.212e-06
1.21192e-06
1.21197e-06
1.21293e-06
1.213e-06
1.21301e-06
1.21213e-06
1.21164e-06
1.21011e-06
1.21011e-06
1.21011e-06
1.21178e-06
1.21213e-06
1.21297e-06
1.21213e-06
1.21161e-06
1.21012e-06
1.21013e-06
1.21014e-06
1.21013e-06
1.21012e-06
1.21176e-06
1.21213e-06
1.21297e-06
1.21297e-06
1.21164e-06
1.21012e-06
1.21014e-06
1.21016e-06
1.21016e-06
1.21016e-06
1.21014e-06
1.21012e-06
1.21178e-06
1.21221e-06
1.21303e-06
1.212e-06
1.21011e-06
1.21013e-06
1.21016e-06
1.21017e-06
1.21018e-06
1.21017e-06
1.21016e-06
1.21013e-06
1.21011e-06
1.21223e-06
1.21314e-06
1.21192e-06
1.21011e-06
1.21014e-06
1.21016e-06
1.21018e-06
1.21019e-06
1.21018e-06
1.21016e-06
1.21014e-06
1.21011e-06
1.21221e-06
1.21314e-06
1.21197e-06
1.21011e-06
1.21013e-06
1.21016e-06
1.21017e-06
1.21018e-06
1.21017e-06
1.21016e-06
1.21013e-06
1.21011e-06
1.21222e-06
1.21314e-06
1.21293e-06
1.21178e-06
1.21012e-06
1.21014e-06
1.21016e-06
1.21016e-06
1.21016e-06
1.21014e-06
1.21012e-06
1.21197e-06
1.21224e-06
1.21315e-06
1.213e-06
1.21213e-06
1.21176e-06
1.21012e-06
1.21013e-06
1.21014e-06
1.21013e-06
1.21012e-06
1.21194e-06
1.21215e-06
1.21231e-06
1.21297e-06
1.21213e-06
1.21178e-06
1.21011e-06
1.21011e-06
1.21011e-06
1.21197e-06
1.21215e-06
1.21228e-06
1.21314e-06
1.21297e-06
1.21221e-06
1.21223e-06
1.21221e-06
1.21222e-06
1.21224e-06
1.21231e-06
1.21314e-06
1.21303e-06
1.21314e-06
1.21314e-06
1.21314e-06
1.21315e-06
1.20242e-06
1.20144e-06
1.20137e-06
1.20142e-06
1.20238e-06
1.20245e-06
1.20246e-06
1.20158e-06
1.20108e-06
1.19954e-06
1.19954e-06
1.19954e-06
1.20122e-06
1.20158e-06
1.20241e-06
1.20158e-06
1.20105e-06
1.19955e-06
1.19956e-06
1.19956e-06
1.19956e-06
1.19955e-06
1.2012e-06
1.20158e-06
1.20242e-06
1.20242e-06
1.20108e-06
1.19955e-06
1.19956e-06
1.19957e-06
1.19957e-06
1.19957e-06
1.19956e-06
1.19955e-06
1.20122e-06
1.20166e-06
1.20248e-06
1.20144e-06
1.19954e-06
1.19956e-06
1.19957e-06
1.19958e-06
1.19959e-06
1.19958e-06
1.19957e-06
1.19956e-06
1.19954e-06
1.20167e-06
1.20259e-06
1.20137e-06
1.19954e-06
1.19956e-06
1.19957e-06
1.19959e-06
1.19959e-06
1.19959e-06
1.19957e-06
1.19956e-06
1.19954e-06
1.20165e-06
1.20259e-06
1.20142e-06
1.19954e-06
1.19956e-06
1.19957e-06
1.19958e-06
1.19959e-06
1.19958e-06
1.19957e-06
1.19956e-06
1.19954e-06
1.20166e-06
1.20259e-06
1.20238e-06
1.20122e-06
1.19955e-06
1.19956e-06
1.19957e-06
1.19957e-06
1.19957e-06
1.19956e-06
1.19955e-06
1.20141e-06
1.20169e-06
1.2026e-06
1.20245e-06
1.20158e-06
1.2012e-06
1.19955e-06
1.19956e-06
1.19956e-06
1.19956e-06
1.19955e-06
1.20138e-06
1.2016e-06
1.20176e-06
1.20241e-06
1.20158e-06
1.20122e-06
1.19954e-06
1.19954e-06
1.19954e-06
1.20141e-06
1.2016e-06
1.20173e-06
1.20258e-06
1.20242e-06
1.20166e-06
1.20167e-06
1.20165e-06
1.20166e-06
1.20169e-06
1.20176e-06
1.20258e-06
1.20248e-06
1.20259e-06
1.20259e-06
1.20259e-06
1.2026e-06
1.19187e-06
1.19089e-06
1.19082e-06
1.19087e-06
1.19183e-06
1.1919e-06
1.19191e-06
1.19103e-06
1.19052e-06
1.18898e-06
1.18899e-06
1.18898e-06
1.19066e-06
1.19102e-06
1.19186e-06
1.19103e-06
1.19049e-06
1.18899e-06
1.18899e-06
1.18899e-06
1.18899e-06
1.18899e-06
1.19064e-06
1.19102e-06
1.19187e-06
1.19187e-06
1.19052e-06
1.18899e-06
1.18899e-06
1.189e-06
1.189e-06
1.189e-06
1.18899e-06
1.18899e-06
1.19066e-06
1.1911e-06
1.19192e-06
1.19089e-06
1.18898e-06
1.18899e-06
1.189e-06
1.18901e-06
1.18901e-06
1.18901e-06
1.189e-06
1.18899e-06
1.18898e-06
1.19112e-06
1.19204e-06
1.19082e-06
1.18899e-06
1.18899e-06
1.189e-06
1.18901e-06
1.18901e-06
1.18901e-06
1.189e-06
1.18899e-06
1.18899e-06
1.1911e-06
1.19203e-06
1.19087e-06
1.18898e-06
1.18899e-06
1.189e-06
1.18901e-06
1.18901e-06
1.18901e-06
1.189e-06
1.18899e-06
1.18898e-06
1.19111e-06
1.19203e-06
1.19183e-06
1.19066e-06
1.18899e-06
1.18899e-06
1.189e-06
1.189e-06
1.189e-06
1.18899e-06
1.18899e-06
1.19086e-06
1.19113e-06
1.19204e-06
1.1919e-06
1.19102e-06
1.19064e-06
1.18899e-06
1.18899e-06
1.18899e-06
1.18899e-06
1.18899e-06
1.19082e-06
1.19105e-06
1.1912e-06
1.19186e-06
1.19102e-06
1.19066e-06
1.18898e-06
1.18899e-06
1.18898e-06
1.19086e-06
1.19105e-06
1.19118e-06
1.19203e-06
1.19187e-06
1.1911e-06
1.19112e-06
1.1911e-06
1.19111e-06
1.19113e-06
1.1912e-06
1.19203e-06
1.19192e-06
1.19204e-06
1.19203e-06
1.19203e-06
1.19204e-06
1.18131e-06
1.18033e-06
1.18026e-06
1.18031e-06
1.18127e-06
1.18134e-06
1.18135e-06
1.18047e-06
1.17997e-06
1.17843e-06
1.17843e-06
1.17843e-06
1.18011e-06
1.18047e-06
1.18131e-06
1.18047e-06
1.17993e-06
1.17843e-06
1.17843e-06
1.17843e-06
1.17843e-06
1.17843e-06
1.18009e-06
1.18047e-06
1.18131e-06
1.18131e-06
1.17997e-06
1.17843e-06
1.17843e-06
1.17844e-06
1.17844e-06
1.17844e-06
1.17843e-06
1.17843e-06
1.18011e-06
1.18055e-06
1.18137e-06
1.18033e-06
1.17843e-06
1.17843e-06
1.17844e-06
1.17844e-06
1.17844e-06
1.17844e-06
1.17844e-06
1.17843e-06
1.17843e-06
1.18057e-06
1.18148e-06
1.18026e-06
1.17843e-06
1.17843e-06
1.17844e-06
1.17844e-06
1.17844e-06
1.17844e-06
1.17844e-06
1.17843e-06
1.17843e-06
1.18054e-06
1.18148e-06
1.18031e-06
1.17843e-06
1.17843e-06
1.17844e-06
1.17844e-06
1.17844e-06
1.17844e-06
1.17844e-06
1.17843e-06
1.17843e-06
1.18055e-06
1.18148e-06
1.18127e-06
1.18011e-06
1.17843e-06
1.17843e-06
1.17844e-06
1.17844e-06
1.17844e-06
1.17843e-06
1.17843e-06
1.1803e-06
1.18058e-06
1.18149e-06
1.18134e-06
1.18047e-06
1.18009e-06
1.17843e-06
1.17843e-06
1.17843e-06
1.17843e-06
1.17843e-06
1.18027e-06
1.18049e-06
1.18065e-06
1.18131e-06
1.18047e-06
1.18011e-06
1.17843e-06
1.17843e-06
1.17843e-06
1.1803e-06
1.18049e-06
1.18062e-06
1.18148e-06
1.18131e-06
1.18055e-06
1.18057e-06
1.18054e-06
1.18055e-06
1.18058e-06
1.18065e-06
1.18148e-06
1.18137e-06
1.18148e-06
1.18148e-06
1.18148e-06
1.18149e-06
1.17076e-06
1.16978e-06
1.16971e-06
1.16976e-06
1.17072e-06
1.17079e-06
1.1708e-06
1.16992e-06
1.16941e-06
1.16787e-06
1.16787e-06
1.16787e-06
1.16956e-06
1.16992e-06
1.17075e-06
1.16992e-06
1.16938e-06
1.16787e-06
1.16788e-06
1.16788e-06
1.16788e-06
1.16787e-06
1.16953e-06
1.16991e-06
1.17076e-06
1.17076e-06
1.16941e-06
1.16787e-06
1.16788e-06
1.16788e-06
1.16788e-06
1.16788e-06
1.16788e-06
1.16787e-06
1.16955e-06
1.17e-06
1.17082e-06
1.16978e-06
1.16787e-06
1.16788e-06
1.16788e-06
1.16788e-06
1.16788e-06
1.16788e-06
1.16788e-06
1.16788e-06
1.16787e-06
1.17001e-06
1.17093e-06
1.16971e-06
1.16787e-06
1.16788e-06
1.16788e-06
1.16788e-06
1.16788e-06
1.16788e-06
1.16788e-06
1.16788e-06
1.16787e-06
1.16999e-06
1.17092e-06
1.16976e-06
1.16787e-06
1.16788e-06
1.16788e-06
1.16788e-06
1.16788e-06
1.16788e-06
1.16788e-06
1.16788e-06
1.16787e-06
1.17e-06
1.17093e-06
1.17072e-06
1.16956e-06
1.16787e-06
1.16788e-06
1.16788e-06
1.16788e-06
1.16788e-06
1.16788e-06
1.16787e-06
1.16975e-06
1.17003e-06
1.17094e-06
1.17079e-06
1.16992e-06
1.16953e-06
1.16787e-06
1.16788e-06
1.16788e-06
1.16788e-06
1.16787e-06
1.16971e-06
1.16994e-06
1.1701e-06
1.17075e-06
1.16991e-06
1.16955e-06
1.16787e-06
1.16787e-06
1.16787e-06
1.16975e-06
1.16994e-06
1.17007e-06
1.17092e-06
1.17076e-06
1.17e-06
1.17001e-06
1.16999e-06
1.17e-06
1.17003e-06
1.1701e-06
1.17092e-06
1.17082e-06
1.17093e-06
1.17092e-06
1.17093e-06
1.17094e-06
1.16021e-06
1.15923e-06
1.15915e-06
1.1592e-06
1.16017e-06
1.16024e-06
1.16025e-06
1.15936e-06
1.15886e-06
1.15732e-06
1.15732e-06
1.15732e-06
1.159e-06
1.15936e-06
1.1602e-06
1.15936e-06
1.15882e-06
1.15732e-06
1.15732e-06
1.15732e-06
1.15732e-06
1.15732e-06
1.15898e-06
1.15936e-06
1.1602e-06
1.16021e-06
1.15886e-06
1.15732e-06
1.15732e-06
1.15732e-06
1.15732e-06
1.15732e-06
1.15732e-06
1.15732e-06
1.159e-06
1.15944e-06
1.16026e-06
1.15923e-06
1.15732e-06
1.15732e-06
1.15732e-06
1.15732e-06
1.15732e-06
1.15732e-06
1.15732e-06
1.15732e-06
1.15732e-06
1.15946e-06
1.16037e-06
1.15915e-06
1.15732e-06
1.15732e-06
1.15732e-06
1.15732e-06
1.15732e-06
1.15732e-06
1.15732e-06
1.15732e-06
1.15732e-06
1.15944e-06
1.16037e-06
1.1592e-06
1.15732e-06
1.15732e-06
1.15732e-06
1.15732e-06
1.15732e-06
1.15732e-06
1.15732e-06
1.15732e-06
1.15732e-06
1.15945e-06
1.16037e-06
1.16017e-06
1.159e-06
1.15732e-06
1.15732e-06
1.15732e-06
1.15732e-06
1.15732e-06
1.15732e-06
1.15732e-06
1.15919e-06
1.15947e-06
1.16038e-06
1.16024e-06
1.15936e-06
1.15898e-06
1.15732e-06
1.15732e-06
1.15732e-06
1.15732e-06
1.15732e-06
1.15916e-06
1.15938e-06
1.15954e-06
1.1602e-06
1.15936e-06
1.159e-06
1.15732e-06
1.15732e-06
1.15732e-06
1.15919e-06
1.15938e-06
1.15952e-06
1.16037e-06
1.1602e-06
1.15944e-06
1.15946e-06
1.15944e-06
1.15945e-06
1.15947e-06
1.15954e-06
1.16037e-06
1.16026e-06
1.16037e-06
1.16037e-06
1.16037e-06
1.16038e-06
1.14965e-06
1.14867e-06
1.1486e-06
1.14865e-06
1.14961e-06
1.14968e-06
1.14969e-06
1.14881e-06
1.1483e-06
1.14676e-06
1.14676e-06
1.14676e-06
1.14845e-06
1.14881e-06
1.14965e-06
1.14881e-06
1.14827e-06
1.14676e-06
1.14677e-06
1.14677e-06
1.14677e-06
1.14676e-06
1.14842e-06
1.1488e-06
1.14965e-06
1.14965e-06
1.1483e-06
1.14676e-06
1.14677e-06
1.14677e-06
1.14677e-06
1.14677e-06
1.14677e-06
1.14676e-06
1.14845e-06
1.14889e-06
1.14971e-06
1.14867e-06
1.14676e-06
1.14677e-06
1.14677e-06
1.14677e-06
1.14677e-06
1.14677e-06
1.14677e-06
1.14677e-06
1.14676e-06
1.1489e-06
1.14982e-06
1.1486e-06
1.14676e-06
1.14677e-06
1.14677e-06
1.14677e-06
1.14677e-06
1.14677e-06
1.14677e-06
1.14677e-06
1.14676e-06
1.14888e-06
1.14982e-06
1.14865e-06
1.14676e-06
1.14677e-06
1.14677e-06
1.14677e-06
1.14677e-06
1.14677e-06
1.14677e-06
1.14677e-06
1.14676e-06
1.14889e-06
1.14982e-06
1.14961e-06
1.14845e-06
1.14676e-06
1.14677e-06
1.14677e-06
1.14677e-06
1.14677e-06
1.14677e-06
1.14676e-06
1.14864e-06
1.14892e-06
1.14983e-06
1.14968e-06
1.14881e-06
1.14842e-06
1.14676e-06
1.14677e-06
1.14677e-06
1.14677e-06
1.14676e-06
1.1486e-06
1.14883e-06
1.14899e-06
1.14965e-06
1.1488e-06
1.14845e-06
1.14676e-06
1.14676e-06
1.14676e-06
1.14864e-06
1.14883e-06
1.14896e-06
1.14982e-06
1.14965e-06
1.14889e-06
1.1489e-06
1.14888e-06
1.14889e-06
1.14892e-06
1.14899e-06
1.14982e-06
1.14971e-06
1.14982e-06
1.14982e-06
1.14982e-06
1.14983e-06
1.1391e-06
1.13812e-06
1.13804e-06
1.13809e-06
1.13906e-06
1.13913e-06
1.13914e-06
1.13826e-06
1.13775e-06
1.13621e-06
1.13621e-06
1.13621e-06
1.13789e-06
1.13825e-06
1.13909e-06
1.13826e-06
1.13772e-06
1.13621e-06
1.13621e-06
1.13621e-06
1.13621e-06
1.13621e-06
1.13787e-06
1.13825e-06
1.1391e-06
1.1391e-06
1.13775e-06
1.13621e-06
1.13621e-06
1.13621e-06
1.13621e-06
1.13621e-06
1.13621e-06
1.13621e-06
1.13789e-06
1.13833e-06
1.13915e-06
1.13812e-06
1.13621e-06
1.13621e-06
1.13621e-06
1.13621e-06
1.13621e-06
1.13621e-06
1.13621e-06
1.13621e-06
1.13621e-06
1.13835e-06
1.13927e-06
1.13804e-06
1.13621e-06
1.13621e-06
1.13621e-06
1.13621e-06
1.13621e-06
1.13621e-06
1.13621e-06
1.13621e-06
1.13621e-06
1.13833e-06
1.13926e-06
1.13809e-06
1.13621e-06
1.13621e-06
1.13621e-06
1.13621e-06
1.13621e-06
1.13621e-06
1.13621e-06
1.13621e-06
1.13621e-06
1.13834e-06
1.13926e-06
1.13906e-06
1.13789e-06
1.13621e-06
1.13621e-06
1.13621e-06
1.13621e-06
1.13621e-06
1.13621e-06
1.13621e-06
1.13809e-06
1.13836e-06
1.13927e-06
1.13913e-06
1.13825e-06
1.13787e-06
1.13621e-06
1.13621e-06
1.13621e-06
1.13621e-06
1.13621e-06
1.13805e-06
1.13827e-06
1.13843e-06
1.13909e-06
1.13825e-06
1.13789e-06
1.13621e-06
1.13621e-06
1.13621e-06
1.13809e-06
1.13827e-06
1.13841e-06
1.13926e-06
1.1391e-06
1.13833e-06
1.13835e-06
1.13833e-06
1.13834e-06
1.13836e-06
1.13843e-06
1.13926e-06
1.13915e-06
1.13927e-06
1.13926e-06
1.13926e-06
1.13927e-06
1.12854e-06
1.12756e-06
1.12749e-06
1.12754e-06
1.1285e-06
1.12857e-06
1.12858e-06
1.1277e-06
1.12719e-06
1.12566e-06
1.12566e-06
1.12566e-06
1.12734e-06
1.1277e-06
1.12854e-06
1.1277e-06
1.12716e-06
1.12566e-06
1.12566e-06
1.12566e-06
1.12566e-06
1.12566e-06
1.12731e-06
1.1277e-06
1.12854e-06
1.12854e-06
1.12719e-06
1.12566e-06
1.12566e-06
1.12566e-06
1.12566e-06
1.12566e-06
1.12566e-06
1.12566e-06
1.12734e-06
1.12778e-06
1.1286e-06
1.12756e-06
1.12566e-06
1.12566e-06
1.12566e-06
1.12566e-06
1.12566e-06
1.12566e-06
1.12566e-06
1.12566e-06
1.12566e-06
1.12779e-06
1.12871e-06
1.12749e-06
1.12566e-06
1.12566e-06
1.12566e-06
1.12566e-06
1.12566e-06
1.12566e-06
1.12566e-06
1.12566e-06
1.12566e-06
1.12777e-06
1.12871e-06
1.12754e-06
1.12566e-06
1.12566e-06
1.12566e-06
1.12566e-06
1.12566e-06
1.12566e-06
1.12566e-06
1.12566e-06
1.12566e-06
1.12778e-06
1.12871e-06
1.1285e-06
1.12734e-06
1.12566e-06
1.12566e-06
1.12566e-06
1.12566e-06
1.12566e-06
1.12566e-06
1.12566e-06
1.12753e-06
1.12781e-06
1.12872e-06
1.12857e-06
1.1277e-06
1.12731e-06
1.12566e-06
1.12566e-06
1.12566e-06
1.12566e-06
1.12566e-06
1.1275e-06
1.12772e-06
1.12788e-06
1.12854e-06
1.1277e-06
1.12734e-06
1.12566e-06
1.12566e-06
1.12566e-06
1.12753e-06
1.12772e-06
1.12785e-06
1.12871e-06
1.12854e-06
1.12778e-06
1.12779e-06
1.12777e-06
1.12778e-06
1.12781e-06
1.12788e-06
1.12871e-06
1.1286e-06
1.12871e-06
1.12871e-06
1.12871e-06
1.12872e-06
1.11799e-06
1.11701e-06
1.11694e-06
1.11698e-06
1.11795e-06
1.11802e-06
1.11803e-06
1.11715e-06
1.11664e-06
1.1151e-06
1.1151e-06
1.1151e-06
1.11678e-06
1.11714e-06
1.11798e-06
1.11715e-06
1.11661e-06
1.1151e-06
1.1151e-06
1.1151e-06
1.1151e-06
1.1151e-06
1.11676e-06
1.11714e-06
1.11799e-06
1.11799e-06
1.11664e-06
1.1151e-06
1.1151e-06
1.1151e-06
1.1151e-06
1.1151e-06
1.1151e-06
1.1151e-06
1.11678e-06
1.11723e-06
1.11805e-06
1.11701e-06
1.1151e-06
1.1151e-06
1.1151e-06
1.1151e-06
1.1151e-06
1.1151e-06
1.1151e-06
1.1151e-06
1.1151e-06
1.11724e-06
1.11816e-06
1.11694e-06
1.1151e-06
1.1151e-06
1.1151e-06
1.1151e-06
1.1151e-06
1.1151e-06
1.1151e-06
1.1151e-06
1.1151e-06
1.11722e-06
1.11815e-06
1.11698e-06
1.1151e-06
1.1151e-06
1.1151e-06
1.1151e-06
1.1151e-06
1.1151e-06
1.1151e-06
1.1151e-06
1.1151e-06
1.11723e-06
1.11815e-06
1.11795e-06
1.11678e-06
1.1151e-06
1.1151e-06
1.1151e-06
1.1151e-06
1.1151e-06
1.1151e-06
1.1151e-06
1.11698e-06
1.11726e-06
1.11816e-06
1.11802e-06
1.11714e-06
1.11676e-06
1.1151e-06
1.1151e-06
1.1151e-06
1.1151e-06
1.1151e-06
1.11694e-06
1.11717e-06
1.11732e-06
1.11798e-06
1.11714e-06
1.11678e-06
1.1151e-06
1.1151e-06
1.1151e-06
1.11698e-06
1.11717e-06
1.1173e-06
1.11815e-06
1.11799e-06
1.11723e-06
1.11724e-06
1.11722e-06
1.11723e-06
1.11726e-06
1.11732e-06
1.11815e-06
1.11805e-06
1.11816e-06
1.11815e-06
1.11815e-06
1.11816e-06
1.10743e-06
1.10645e-06
1.10638e-06
1.10643e-06
1.10739e-06
1.10746e-06
1.10747e-06
1.10659e-06
1.10609e-06
1.10455e-06
1.10455e-06
1.10455e-06
1.10623e-06
1.10659e-06
1.10743e-06
1.10659e-06
1.10605e-06
1.10455e-06
1.10455e-06
1.10455e-06
1.10455e-06
1.10455e-06
1.1062e-06
1.10659e-06
1.10743e-06
1.10743e-06
1.10609e-06
1.10455e-06
1.10455e-06
1.10455e-06
1.10455e-06
1.10455e-06
1.10455e-06
1.10455e-06
1.10623e-06
1.10667e-06
1.10749e-06
1.10645e-06
1.10455e-06
1.10455e-06
1.10455e-06
1.10455e-06
1.10455e-06
1.10455e-06
1.10455e-06
1.10455e-06
1.10455e-06
1.10669e-06
1.1076e-06
1.10638e-06
1.10455e-06
1.10455e-06
1.10455e-06
1.10455e-06
1.10455e-06
1.10455e-06
1.10455e-06
1.10455e-06
1.10455e-06
1.10666e-06
1.1076e-06
1.10643e-06
1.10455e-06
1.10455e-06
1.10455e-06
1.10455e-06
1.10455e-06
1.10455e-06
1.10455e-06
1.10455e-06
1.10455e-06
1.10667e-06
1.1076e-06
1.10739e-06
1.10623e-06
1.10455e-06
1.10455e-06
1.10455e-06
1.10455e-06
1.10455e-06
1.10455e-06
1.10455e-06
1.10642e-06
1.1067e-06
1.10761e-06
1.10746e-06
1.10659e-06
1.1062e-06
1.10455e-06
1.10455e-06
1.10455e-06
1.10455e-06
1.10455e-06
1.10639e-06
1.10661e-06
1.10677e-06
1.10743e-06
1.10659e-06
1.10623e-06
1.10455e-06
1.10455e-06
1.10455e-06
1.10642e-06
1.10661e-06
1.10674e-06
1.1076e-06
1.10743e-06
1.10667e-06
1.10669e-06
1.10666e-06
1.10667e-06
1.1067e-06
1.10677e-06
1.1076e-06
1.10749e-06
1.1076e-06
1.1076e-06
1.1076e-06
1.10761e-06
1.09688e-06
1.0959e-06
1.09583e-06
1.09588e-06
1.09684e-06
1.09691e-06
1.09692e-06
1.09604e-06
1.09553e-06
1.09399e-06
1.09399e-06
1.09399e-06
1.09567e-06
1.09604e-06
1.09687e-06
1.09604e-06
1.0955e-06
1.09399e-06
1.09399e-06
1.09399e-06
1.09399e-06
1.09399e-06
1.09565e-06
1.09603e-06
1.09688e-06
1.09688e-06
1.09553e-06
1.09399e-06
1.09399e-06
1.09399e-06
1.09399e-06
1.09399e-06
1.09399e-06
1.09399e-06
1.09567e-06
1.09612e-06
1.09694e-06
1.0959e-06
1.09399e-06
1.09399e-06
1.09399e-06
1.09399e-06
1.09399e-06
1.09399e-06
1.09399e-06
1.09399e-06
1.09399e-06
1.09613e-06
1.09705e-06
1.09583e-06
1.09399e-06
1.09399e-06
1.09399e-06
1.09399e-06
1.09399e-06
1.09399e-06
1.09399e-06
1.09399e-06
1.09399e-06
1.09611e-06
1.09704e-06
1.09588e-06
1.09399e-06
1.09399e-06
1.09399e-06
1.09399e-06
1.09399e-06
1.09399e-06
1.09399e-06
1.09399e-06
1.09399e-06
1.09612e-06
1.09705e-06
1.09684e-06
1.09567e-06
1.09399e-06
1.09399e-06
1.09399e-06
1.09399e-06
1.09399e-06
1.09399e-06
1.09399e-06
1.09587e-06
1.09615e-06
1.09706e-06
1.09691e-06
1.09604e-06
1.09565e-06
1.09399e-06
1.09399e-06
1.09399e-06
1.09399e-06
1.09399e-06
1.09583e-06
1.09606e-06
1.09622e-06
1.09687e-06
1.09603e-06
1.09567e-06
1.09399e-06
1.09399e-06
1.09399e-06
1.09587e-06
1.09606e-06
1.09619e-06
1.09704e-06
1.09688e-06
1.09612e-06
1.09613e-06
1.09611e-06
1.09612e-06
1.09615e-06
1.09622e-06
1.09704e-06
1.09694e-06
1.09705e-06
1.09704e-06
1.09705e-06
1.09706e-06
1.08632e-06
1.08534e-06
1.08527e-06
1.08532e-06
1.08629e-06
1.08636e-06
1.08637e-06
1.08548e-06
1.08498e-06
1.08344e-06
1.08344e-06
1.08344e-06
1.08512e-06
1.08548e-06
1.08632e-06
1.08548e-06
1.08494e-06
1.08344e-06
1.08344e-06
1.08344e-06
1.08344e-06
1.08344e-06
1.0851e-06
1.08548e-06
1.08632e-06
1.08632e-06
1.08498e-06
1.08344e-06
1.08344e-06
1.08344e-06
1.08344e-06
1.08344e-06
1.08344e-06
1.08344e-06
1.08512e-06
1.08556e-06
1.08638e-06
1.08534e-06
1.08344e-06
1.08344e-06
1.08344e-06
1.08344e-06
1.08344e-06
1.08344e-06
1.08344e-06
1.08344e-06
1.08344e-06
1.08558e-06
1.08649e-06
1.08527e-06
1.08344e-06
1.08344e-06
1.08344e-06
1.08344e-06
1.08344e-06
1.08344e-06
1.08344e-06
1.08344e-06
1.08344e-06
1.08556e-06
1.08649e-06
1.08532e-06
1.08344e-06
1.08344e-06
1.08344e-06
1.08344e-06
1.08344e-06
1.08344e-06
1.08344e-06
1.08344e-06
1.08344e-06
1.08556e-06
1.08649e-06
1.08629e-06
1.08512e-06
1.08344e-06
1.08344e-06
1.08344e-06
1.08344e-06
1.08344e-06
1.08344e-06
1.08344e-06
1.08531e-06
1.08559e-06
1.0865e-06
1.08636e-06
1.08548e-06
1.0851e-06
1.08344e-06
1.08344e-06
1.08344e-06
1.08344e-06
1.08344e-06
1.08528e-06
1.0855e-06
1.08566e-06
1.08632e-06
1.08548e-06
1.08512e-06
1.08344e-06
1.08344e-06
1.08344e-06
1.08531e-06
1.0855e-06
1.08564e-06
1.08649e-06
1.08632e-06
1.08556e-06
1.08558e-06
1.08556e-06
1.08556e-06
1.08559e-06
1.08566e-06
1.08649e-06
1.08638e-06
1.08649e-06
1.08649e-06
1.08649e-06
1.0865e-06
1.07577e-06
1.07479e-06
1.07472e-06
1.07477e-06
1.07573e-06
1.0758e-06
1.07581e-06
1.07493e-06
1.07442e-06
1.07288e-06
1.07288e-06
1.07288e-06
1.07457e-06
1.07493e-06
1.07577e-06
1.07493e-06
1.07439e-06
1.07288e-06
1.07288e-06
1.07288e-06
1.07288e-06
1.07288e-06
1.07454e-06
1.07492e-06
1.07577e-06
1.07577e-06
1.07442e-06
1.07288e-06
1.07288e-06
1.07288e-06
1.07288e-06
1.07288e-06
1.07288e-06
1.07288e-06
1.07457e-06
1.07501e-06
1.07583e-06
1.07479e-06
1.07288e-06
1.07288e-06
1.07288e-06
1.07288e-06
1.07288e-06
1.07288e-06
1.07288e-06
1.07288e-06
1.07288e-06
1.07502e-06
1.07594e-06
1.07472e-06
1.07288e-06
1.07288e-06
1.07288e-06
1.07288e-06
1.07288e-06
1.07288e-06
1.07288e-06
1.07288e-06
1.07288e-06
1.075e-06
1.07594e-06
1.07477e-06
1.07288e-06
1.07288e-06
1.07288e-06
1.07288e-06
1.07288e-06
1.07288e-06
1.07288e-06
1.07288e-06
1.07288e-06
1.07501e-06
1.07594e-06
1.07573e-06
1.07457e-06
1.07288e-06
1.07288e-06
1.07288e-06
1.07288e-06
1.07288e-06
1.07288e-06
1.07288e-06
1.07476e-06
1.07504e-06
1.07595e-06
1.0758e-06
1.07493e-06
1.07454e-06
1.07288e-06
1.07288e-06
1.07288e-06
1.07288e-06
1.07288e-06
1.07472e-06
1.07495e-06
1.07511e-06
1.07577e-06
1.07492e-06
1.07457e-06
1.07288e-06
1.07288e-06
1.07288e-06
1.07476e-06
1.07495e-06
1.07508e-06
1.07594e-06
1.07577e-06
1.07501e-06
1.07502e-06
1.075e-06
1.07501e-06
1.07504e-06
1.07511e-06
1.07594e-06
1.07583e-06
1.07594e-06
1.07594e-06
1.07594e-06
1.07595e-06
1.06522e-06
1.06424e-06
1.06416e-06
1.06421e-06
1.06518e-06
1.06525e-06
1.06526e-06
1.06437e-06
1.06387e-06
1.06233e-06
1.06233e-06
1.06233e-06
1.06401e-06
1.06437e-06
1.06521e-06
1.06437e-06
1.06384e-06
1.06233e-06
1.06233e-06
1.06233e-06
1.06233e-06
1.06233e-06
1.06399e-06
1.06437e-06
1.06522e-06
1.06522e-06
1.06387e-06
1.06233e-06
1.06233e-06
1.06233e-06
1.06233e-06
1.06233e-06
1.06233e-06
1.06233e-06
1.06401e-06
1.06445e-06
1.06527e-06
1.06424e-06
1.06233e-06
1.06233e-06
1.06233e-06
1.06233e-06
1.06233e-06
1.06233e-06
1.06233e-06
1.06233e-06
1.06233e-06
1.06447e-06
1.06539e-06
1.06416e-06
1.06233e-06
1.06233e-06
1.06233e-06
1.06233e-06
1.06233e-06
1.06233e-06
1.06233e-06
1.06233e-06
1.06233e-06
1.06445e-06
1.06538e-06
1.06421e-06
1.06233e-06
1.06233e-06
1.06233e-06
1.06233e-06
1.06233e-06
1.06233e-06
1.06233e-06
1.06233e-06
1.06233e-06
1.06446e-06
1.06538e-06
1.06518e-06
1.06401e-06
1.06233e-06
1.06233e-06
1.06233e-06
1.06233e-06
1.06233e-06
1.06233e-06
1.06233e-06
1.06421e-06
1.06448e-06
1.06539e-06
1.06525e-06
1.06437e-06
1.06399e-06
1.06233e-06
1.06233e-06
1.06233e-06
1.06233e-06
1.06233e-06
1.06417e-06
1.06439e-06
1.06455e-06
1.06521e-06
1.06437e-06
1.06401e-06
1.06233e-06
1.06233e-06
1.06233e-06
1.06421e-06
1.06439e-06
1.06453e-06
1.06538e-06
1.06522e-06
1.06445e-06
1.06447e-06
1.06445e-06
1.06446e-06
1.06448e-06
1.06455e-06
1.06538e-06
1.06527e-06
1.06539e-06
1.06538e-06
1.06538e-06
1.06539e-06
1.05466e-06
1.05368e-06
1.05361e-06
1.05366e-06
1.05462e-06
1.05469e-06
1.0547e-06
1.05382e-06
1.05331e-06
1.05177e-06
1.05178e-06
1.05177e-06
1.05346e-06
1.05382e-06
1.05466e-06
1.05382e-06
1.05328e-06
1.05177e-06
1.05178e-06
1.05178e-06
1.05178e-06
1.05177e-06
1.05343e-06
1.05381e-06
1.05466e-06
1.05466e-06
1.05331e-06
1.05177e-06
1.05178e-06
1.05178e-06
1.05178e-06
1.05178e-06
1.05178e-06
1.05177e-06
1.05346e-06
1.0539e-06
1.05472e-06
1.05368e-06
1.05177e-06
1.05178e-06
1.05178e-06
1.05178e-06
1.05178e-06
1.05178e-06
1.05178e-06
1.05178e-06
1.05177e-06
1.05391e-06
1.05483e-06
1.05361e-06
1.05178e-06
1.05178e-06
1.05178e-06
1.05178e-06
1.05178e-06
1.05178e-06
1.05178e-06
1.05178e-06
1.05178e-06
1.05389e-06
1.05483e-06
1.05366e-06
1.05177e-06
1.05178e-06
1.05178e-06
1.05178e-06
1.05178e-06
1.05178e-06
1.05178e-06
1.05178e-06
1.05177e-06
1.0539e-06
1.05483e-06
1.05462e-06
1.05346e-06
1.05177e-06
1.05178e-06
1.05178e-06
1.05178e-06
1.05178e-06
1.05178e-06
1.05177e-06
1.05365e-06
1.05393e-06
1.05484e-06
1.05469e-06
1.05382e-06
1.05343e-06
1.05177e-06
1.05178e-06
1.05178e-06
1.05178e-06
1.05177e-06
1.05362e-06
1.05384e-06
1.054e-06
1.05466e-06
1.05381e-06
1.05346e-06
1.05177e-06
1.05178e-06
1.05177e-06
1.05365e-06
1.05384e-06
1.05397e-06
1.05483e-06
1.05466e-06
1.0539e-06
1.05391e-06
1.05389e-06
1.0539e-06
1.05393e-06
1.054e-06
1.05483e-06
1.05472e-06
1.05483e-06
1.05483e-06
1.05483e-06
1.05484e-06
1.04411e-06
1.04313e-06
1.04305e-06
1.0431e-06
1.04407e-06
1.04414e-06
1.04415e-06
1.04327e-06
1.04276e-06
1.04122e-06
1.04122e-06
1.04122e-06
1.0429e-06
1.04326e-06
1.0441e-06
1.04327e-06
1.04273e-06
1.04122e-06
1.04122e-06
1.04122e-06
1.04122e-06
1.04122e-06
1.04288e-06
1.04326e-06
1.04411e-06
1.04411e-06
1.04276e-06
1.04122e-06
1.04122e-06
1.04122e-06
1.04122e-06
1.04122e-06
1.04122e-06
1.04122e-06
1.0429e-06
1.04335e-06
1.04416e-06
1.04313e-06
1.04122e-06
1.04122e-06
1.04122e-06
1.04122e-06
1.04122e-06
1.04122e-06
1.04122e-06
1.04122e-06
1.04122e-06
1.04336e-06
1.04428e-06
1.04305e-06
1.04122e-06
1.04122e-06
1.04122e-06
1.04122e-06
1.04122e-06
1.04122e-06
1.04122e-06
1.04122e-06
1.04122e-06
1.04334e-06
1.04427e-06
1.0431e-06
1.04122e-06
1.04122e-06
1.04122e-06
1.04122e-06
1.04122e-06
1.04122e-06
1.04122e-06
1.04122e-06