/*--------------------------------*- C++ -*----------------------------------*\
| =========                 |                                                 |
| \\      /  F ield         | OpenFOAM: The Open Source CFD Toolbox           |
|  \\    /   O peration     | Version:  v2012                                 |
|   \\  /    A nd           | Website:  www.openfoam.com                      |
|    \\/     M anipulation  |                                                 |
\*---------------------------------------------------------------------------*/
FoamFile
{
    version     2.0;
    format      ascii;
    class       volScalarField;
    location    "23";
    object      p;
}
// * * * * * * * * * * * * * * * * * * * * * * * * * * * * * * * * * * * * * //

dimensions      [0 2 -2 0 0 0 0];


internalField   nonuniform List<scalar> 
292667
(
1.54706e-06
1.53552e-06
1.53451e-06
1.53461e-06
1.53605e-06
1.54806e-06
1.53574e-06
1.53214e-06
1.53008e-06
1.52924e-06
1.52935e-06
1.53046e-06
1.53286e-06
1.53685e-06
1.53574e-06
1.53109e-06
1.52827e-06
1.52673e-06
1.52609e-06
1.52618e-06
1.52702e-06
1.52882e-06
1.53203e-06
1.53717e-06
1.54706e-06
1.53214e-06
1.52827e-06
1.52602e-06
1.52476e-06
1.52421e-06
1.52429e-06
1.52499e-06
1.52646e-06
1.52904e-06
1.53343e-06
1.54735e-06
1.53552e-06
1.53008e-06
1.52673e-06
1.52476e-06
1.52363e-06
1.52314e-06
1.52321e-06
1.52385e-06
1.52515e-06
1.52741e-06
1.53123e-06
1.54037e-06
1.53451e-06
1.52924e-06
1.52609e-06
1.52421e-06
1.52314e-06
1.52268e-06
1.52274e-06
1.52335e-06
1.52459e-06
1.52672e-06
1.53033e-06
1.53814e-06
1.53461e-06
1.52935e-06
1.52617e-06
1.52429e-06
1.52321e-06
1.52274e-06
1.52281e-06
1.52342e-06
1.52467e-06
1.52682e-06
1.53046e-06
1.53849e-06
1.53605e-06
1.53046e-06
1.52702e-06
1.52499e-06
1.52385e-06
1.52335e-06
1.52342e-06
1.52407e-06
1.5254e-06
1.52772e-06
1.53165e-06
1.54078e-06
1.54806e-06
1.53286e-06
1.52882e-06
1.52646e-06
1.52515e-06
1.52459e-06
1.52467e-06
1.5254e-06
1.52694e-06
1.52964e-06
1.5342e-06
1.54753e-06
1.53685e-06
1.53203e-06
1.52904e-06
1.52741e-06
1.52672e-06
1.52682e-06
1.52772e-06
1.52964e-06
1.53306e-06
1.54123e-06
1.53717e-06
1.53343e-06
1.53123e-06
1.53033e-06
1.53046e-06
1.53165e-06
1.5342e-06
1.54123e-06
1.54735e-06
1.54037e-06
1.53814e-06
1.53849e-06
1.54078e-06
1.54753e-06
1.51345e-06
1.51204e-06
1.51202e-06
1.51205e-06
1.51321e-06
1.51325e-06
1.51351e-06
1.5124e-06
1.51192e-06
1.5099e-06
1.50988e-06
1.5099e-06
1.512e-06
1.51231e-06
1.5134e-06
1.5124e-06
1.51194e-06
1.50996e-06
1.50985e-06
1.50989e-06
1.50985e-06
1.50996e-06
1.51197e-06
1.5123e-06
1.51337e-06
1.51344e-06
1.51192e-06
1.50996e-06
1.50987e-06
1.5099e-06
1.5099e-06
1.5099e-06
1.50987e-06
1.50996e-06
1.51196e-06
1.51233e-06
1.51353e-06
1.51204e-06
1.5099e-06
1.50985e-06
1.5099e-06
1.50988e-06
1.50987e-06
1.50988e-06
1.5099e-06
1.50985e-06
1.5099e-06
1.51235e-06
1.51349e-06
1.51202e-06
1.50988e-06
1.50989e-06
1.5099e-06
1.50987e-06
1.50986e-06
1.50987e-06
1.5099e-06
1.50989e-06
1.50988e-06
1.51231e-06
1.51326e-06
1.51205e-06
1.5099e-06
1.50985e-06
1.5099e-06
1.50988e-06
1.50987e-06
1.50988e-06
1.5099e-06
1.50985e-06
1.5099e-06
1.51233e-06
1.51332e-06
1.51321e-06
1.512e-06
1.50996e-06
1.50987e-06
1.5099e-06
1.5099e-06
1.5099e-06
1.50987e-06
1.50996e-06
1.512e-06
1.51234e-06
1.51351e-06
1.51325e-06
1.51231e-06
1.51196e-06
1.50996e-06
1.50985e-06
1.5099e-06
1.50985e-06
1.50996e-06
1.51197e-06
1.51225e-06
1.51239e-06
1.5134e-06
1.5123e-06
1.51196e-06
1.5099e-06
1.50988e-06
1.5099e-06
1.512e-06
1.51225e-06
1.51248e-06
1.51355e-06
1.51337e-06
1.51233e-06
1.51235e-06
1.51231e-06
1.51233e-06
1.51234e-06
1.51239e-06
1.51355e-06
1.51353e-06
1.51349e-06
1.51326e-06
1.51332e-06
1.51351e-06
1.50049e-06
1.49921e-06
1.49913e-06
1.49918e-06
1.50038e-06
1.5005e-06
1.50057e-06
1.49942e-06
1.49888e-06
1.49687e-06
1.49686e-06
1.49687e-06
1.49899e-06
1.49936e-06
1.50044e-06
1.49942e-06
1.49889e-06
1.49693e-06
1.49691e-06
1.49696e-06
1.49691e-06
1.49693e-06
1.49897e-06
1.49935e-06
1.50044e-06
1.50049e-06
1.49888e-06
1.49693e-06
1.49693e-06
1.497e-06
1.49701e-06
1.497e-06
1.49693e-06
1.49693e-06
1.49896e-06
1.49942e-06
1.50055e-06
1.49921e-06
1.49687e-06
1.49691e-06
1.497e-06
1.49703e-06
1.49704e-06
1.49703e-06
1.49701e-06
1.49691e-06
1.49687e-06
1.49939e-06
1.50061e-06
1.49913e-06
1.49686e-06
1.49696e-06
1.49701e-06
1.49704e-06
1.49705e-06
1.49704e-06
1.49701e-06
1.49696e-06
1.49686e-06
1.49936e-06
1.50057e-06
1.49918e-06
1.49687e-06
1.49691e-06
1.497e-06
1.49703e-06
1.49704e-06
1.49703e-06
1.497e-06
1.49691e-06
1.49687e-06
1.49937e-06
1.50057e-06
1.50038e-06
1.49899e-06
1.49693e-06
1.49693e-06
1.49701e-06
1.49701e-06
1.49701e-06
1.49693e-06
1.49693e-06
1.49906e-06
1.49941e-06
1.50064e-06
1.5005e-06
1.49936e-06
1.49897e-06
1.49693e-06
1.49691e-06
1.49696e-06
1.49691e-06
1.49693e-06
1.49904e-06
1.4993e-06
1.49951e-06
1.50044e-06
1.49935e-06
1.49896e-06
1.49687e-06
1.49686e-06
1.49687e-06
1.49906e-06
1.4993e-06
1.49949e-06
1.50063e-06
1.50044e-06
1.49942e-06
1.49939e-06
1.49936e-06
1.49937e-06
1.49941e-06
1.49951e-06
1.50063e-06
1.50055e-06
1.50061e-06
1.50057e-06
1.50057e-06
1.50064e-06
1.48768e-06
1.48638e-06
1.48629e-06
1.48634e-06
1.48757e-06
1.4877e-06
1.48775e-06
1.48657e-06
1.486e-06
1.48398e-06
1.48398e-06
1.48398e-06
1.48611e-06
1.48653e-06
1.48762e-06
1.48657e-06
1.48598e-06
1.48401e-06
1.48402e-06
1.48404e-06
1.48402e-06
1.48401e-06
1.48608e-06
1.48652e-06
1.48763e-06
1.48768e-06
1.486e-06
1.48401e-06
1.48403e-06
1.48408e-06
1.48409e-06
1.48408e-06
1.48403e-06
1.48401e-06
1.48609e-06
1.4866e-06
1.48775e-06
1.48638e-06
1.48398e-06
1.48402e-06
1.48408e-06
1.48411e-06
1.48412e-06
1.48411e-06
1.48408e-06
1.48402e-06
1.48398e-06
1.48655e-06
1.4878e-06
1.48629e-06
1.48398e-06
1.48404e-06
1.48409e-06
1.48412e-06
1.48413e-06
1.48412e-06
1.48409e-06
1.48404e-06
1.48398e-06
1.48652e-06
1.48775e-06
1.48634e-06
1.48398e-06
1.48402e-06
1.48408e-06
1.48411e-06
1.48412e-06
1.48411e-06
1.48408e-06
1.48402e-06
1.48398e-06
1.48653e-06
1.48776e-06
1.48757e-06
1.48611e-06
1.48401e-06
1.48403e-06
1.48408e-06
1.48409e-06
1.48408e-06
1.48403e-06
1.48401e-06
1.48621e-06
1.48659e-06
1.48782e-06
1.4877e-06
1.48653e-06
1.48608e-06
1.48401e-06
1.48402e-06
1.48404e-06
1.48402e-06
1.48401e-06
1.48618e-06
1.48647e-06
1.48669e-06
1.48762e-06
1.48652e-06
1.48609e-06
1.48398e-06
1.48398e-06
1.48398e-06
1.48621e-06
1.48647e-06
1.48667e-06
1.48783e-06
1.48763e-06
1.4866e-06
1.48655e-06
1.48652e-06
1.48653e-06
1.48659e-06
1.48669e-06
1.48783e-06
1.48775e-06
1.4878e-06
1.48775e-06
1.48776e-06
1.48782e-06
1.47486e-06
1.47355e-06
1.47347e-06
1.47352e-06
1.47475e-06
1.47488e-06
1.47493e-06
1.47374e-06
1.47316e-06
1.47113e-06
1.47113e-06
1.47113e-06
1.47326e-06
1.4737e-06
1.4748e-06
1.47374e-06
1.47313e-06
1.47114e-06
1.47115e-06
1.47117e-06
1.47115e-06
1.47114e-06
1.47323e-06
1.47369e-06
1.47481e-06
1.47486e-06
1.47316e-06
1.47114e-06
1.47116e-06
1.47119e-06
1.47119e-06
1.47119e-06
1.47116e-06
1.47114e-06
1.47325e-06
1.47378e-06
1.47493e-06
1.47355e-06
1.47113e-06
1.47115e-06
1.47119e-06
1.47121e-06
1.47122e-06
1.47121e-06
1.47119e-06
1.47115e-06
1.47113e-06
1.47373e-06
1.47498e-06
1.47347e-06
1.47113e-06
1.47117e-06
1.4712e-06
1.47122e-06
1.47123e-06
1.47122e-06
1.4712e-06
1.47117e-06
1.47113e-06
1.47369e-06
1.47494e-06
1.47352e-06
1.47113e-06
1.47115e-06
1.47119e-06
1.47121e-06
1.47122e-06
1.47121e-06
1.47119e-06
1.47115e-06
1.47113e-06
1.4737e-06
1.47494e-06
1.47475e-06
1.47327e-06
1.47114e-06
1.47116e-06
1.47119e-06
1.4712e-06
1.47119e-06
1.47116e-06
1.47114e-06
1.47338e-06
1.47377e-06
1.475e-06
1.47488e-06
1.4737e-06
1.47323e-06
1.47114e-06
1.47115e-06
1.47117e-06
1.47115e-06
1.47114e-06
1.47334e-06
1.47365e-06
1.47388e-06
1.4748e-06
1.47369e-06
1.47325e-06
1.47113e-06
1.47113e-06
1.47113e-06
1.47338e-06
1.47365e-06
1.47385e-06
1.47501e-06
1.47481e-06
1.47378e-06
1.47373e-06
1.47369e-06
1.47371e-06
1.47377e-06
1.47388e-06
1.47501e-06
1.47493e-06
1.47498e-06
1.47494e-06
1.47494e-06
1.475e-06
1.46204e-06
1.46073e-06
1.46064e-06
1.46069e-06
1.46193e-06
1.46205e-06
1.46211e-06
1.46091e-06
1.46032e-06
1.45829e-06
1.45829e-06
1.45829e-06
1.46043e-06
1.46087e-06
1.46198e-06
1.46091e-06
1.4603e-06
1.4583e-06
1.4583e-06
1.45831e-06
1.4583e-06
1.4583e-06
1.4604e-06
1.46086e-06
1.46199e-06
1.46204e-06
1.46032e-06
1.4583e-06
1.45831e-06
1.45833e-06
1.45833e-06
1.45833e-06
1.45831e-06
1.4583e-06
1.46042e-06
1.46095e-06
1.4621e-06
1.46073e-06
1.45829e-06
1.4583e-06
1.45833e-06
1.45834e-06
1.45834e-06
1.45834e-06
1.45833e-06
1.4583e-06
1.45829e-06
1.4609e-06
1.46215e-06
1.46064e-06
1.45829e-06
1.45831e-06
1.45833e-06
1.45834e-06
1.45835e-06
1.45834e-06
1.45833e-06
1.45831e-06
1.45829e-06
1.46086e-06
1.46211e-06
1.46069e-06
1.45829e-06
1.4583e-06
1.45833e-06
1.45834e-06
1.45834e-06
1.45834e-06
1.45833e-06
1.4583e-06
1.45829e-06
1.46088e-06
1.46212e-06
1.46193e-06
1.46043e-06
1.4583e-06
1.45831e-06
1.45833e-06
1.45833e-06
1.45833e-06
1.45831e-06
1.4583e-06
1.46055e-06
1.46095e-06
1.46218e-06
1.46205e-06
1.46087e-06
1.4604e-06
1.4583e-06
1.4583e-06
1.45831e-06
1.4583e-06
1.4583e-06
1.46051e-06
1.46082e-06
1.46105e-06
1.46198e-06
1.46086e-06
1.46042e-06
1.45829e-06
1.45829e-06
1.45829e-06
1.46055e-06
1.46082e-06
1.46102e-06
1.46218e-06
1.46199e-06
1.46095e-06
1.4609e-06
1.46086e-06
1.46088e-06
1.46095e-06
1.46105e-06
1.46218e-06
1.4621e-06
1.46215e-06
1.46211e-06
1.46212e-06
1.46218e-06
1.44921e-06
1.4479e-06
1.44782e-06
1.44787e-06
1.4491e-06
1.44923e-06
1.44928e-06
1.44809e-06
1.4475e-06
1.44546e-06
1.44546e-06
1.44546e-06
1.44761e-06
1.44804e-06
1.44916e-06
1.44809e-06
1.44747e-06
1.44546e-06
1.44547e-06
1.44547e-06
1.44547e-06
1.44546e-06
1.44757e-06
1.44804e-06
1.44916e-06
1.44921e-06
1.4475e-06
1.44546e-06
1.44547e-06
1.44548e-06
1.44548e-06
1.44548e-06
1.44547e-06
1.44546e-06
1.44759e-06
1.44813e-06
1.44928e-06
1.4479e-06
1.44546e-06
1.44547e-06
1.44548e-06
1.44549e-06
1.44549e-06
1.44549e-06
1.44548e-06
1.44547e-06
1.44546e-06
1.44808e-06
1.44933e-06
1.44782e-06
1.44546e-06
1.44547e-06
1.44548e-06
1.44549e-06
1.44549e-06
1.44549e-06
1.44548e-06
1.44547e-06
1.44546e-06
1.44803e-06
1.44929e-06
1.44787e-06
1.44546e-06
1.44547e-06
1.44548e-06
1.44549e-06
1.44549e-06
1.44549e-06
1.44548e-06
1.44547e-06
1.44546e-06
1.44805e-06
1.44929e-06
1.4491e-06
1.44761e-06
1.44546e-06
1.44547e-06
1.44548e-06
1.44548e-06
1.44548e-06
1.44547e-06
1.44546e-06
1.44772e-06
1.44812e-06
1.44936e-06
1.44923e-06
1.44804e-06
1.44757e-06
1.44546e-06
1.44547e-06
1.44547e-06
1.44547e-06
1.44546e-06
1.44768e-06
1.448e-06
1.44823e-06
1.44916e-06
1.44804e-06
1.44759e-06
1.44546e-06
1.44546e-06
1.44546e-06
1.44772e-06
1.448e-06
1.4482e-06
1.44936e-06
1.44916e-06
1.44813e-06
1.44808e-06
1.44803e-06
1.44805e-06
1.44812e-06
1.44823e-06
1.44936e-06
1.44928e-06
1.44933e-06
1.44929e-06
1.44929e-06
1.44936e-06
1.43639e-06
1.43508e-06
1.43499e-06
1.43504e-06
1.43628e-06
1.4364e-06
1.43646e-06
1.43526e-06
1.43467e-06
1.43263e-06
1.43263e-06
1.43263e-06
1.43478e-06
1.43522e-06
1.43633e-06
1.43526e-06
1.43464e-06
1.43263e-06
1.43263e-06
1.43264e-06
1.43263e-06
1.43263e-06
1.43474e-06
1.43521e-06
1.43634e-06
1.43639e-06
1.43467e-06
1.43263e-06
1.43264e-06
1.43264e-06
1.43264e-06
1.43264e-06
1.43264e-06
1.43263e-06
1.43476e-06
1.4353e-06
1.43645e-06
1.43508e-06
1.43263e-06
1.43263e-06
1.43264e-06
1.43264e-06
1.43265e-06
1.43264e-06
1.43264e-06
1.43263e-06
1.43263e-06
1.43525e-06
1.4365e-06
1.43499e-06
1.43263e-06
1.43264e-06
1.43264e-06
1.43265e-06
1.43265e-06
1.43265e-06
1.43264e-06
1.43264e-06
1.43263e-06
1.43521e-06
1.43646e-06
1.43504e-06
1.43263e-06
1.43263e-06
1.43264e-06
1.43264e-06
1.43265e-06
1.43264e-06
1.43264e-06
1.43263e-06
1.43263e-06
1.43522e-06
1.43647e-06
1.43628e-06
1.43478e-06
1.43263e-06
1.43264e-06
1.43264e-06
1.43264e-06
1.43264e-06
1.43264e-06
1.43263e-06
1.4349e-06
1.4353e-06
1.43653e-06
1.4364e-06
1.43522e-06
1.43474e-06
1.43263e-06
1.43263e-06
1.43264e-06
1.43263e-06
1.43263e-06
1.43486e-06
1.43517e-06
1.4354e-06
1.43633e-06
1.43521e-06
1.43476e-06
1.43263e-06
1.43263e-06
1.43263e-06
1.4349e-06
1.43517e-06
1.43537e-06
1.43654e-06
1.43634e-06
1.4353e-06
1.43525e-06
1.4352e-06
1.43522e-06
1.4353e-06
1.4354e-06
1.43653e-06
1.43645e-06
1.4365e-06
1.43646e-06
1.43647e-06
1.43653e-06
1.42356e-06
1.42225e-06
1.42216e-06
1.42221e-06
1.42345e-06
1.42358e-06
1.42363e-06
1.42243e-06
1.42184e-06
1.4198e-06
1.4198e-06
1.4198e-06
1.42195e-06
1.42239e-06
1.4235e-06
1.42243e-06
1.42181e-06
1.4198e-06
1.41981e-06
1.41981e-06
1.41981e-06
1.4198e-06
1.42192e-06
1.42238e-06
1.42351e-06
1.42356e-06
1.42184e-06
1.4198e-06
1.41981e-06
1.41981e-06
1.41981e-06
1.41981e-06
1.41981e-06
1.4198e-06
1.42194e-06
1.42247e-06
1.42363e-06
1.42225e-06
1.4198e-06
1.41981e-06
1.41981e-06
1.41981e-06
1.41981e-06
1.41981e-06
1.41981e-06
1.41981e-06
1.4198e-06
1.42242e-06
1.42368e-06
1.42216e-06
1.4198e-06
1.41981e-06
1.41981e-06
1.41981e-06
1.41981e-06
1.41981e-06
1.41981e-06
1.41981e-06
1.4198e-06
1.42238e-06
1.42363e-06
1.42221e-06
1.4198e-06
1.41981e-06
1.41981e-06
1.41981e-06
1.41981e-06
1.41981e-06
1.41981e-06
1.41981e-06
1.4198e-06
1.4224e-06
1.42364e-06
1.42345e-06
1.42195e-06
1.4198e-06
1.41981e-06
1.41981e-06
1.41981e-06
1.41981e-06
1.41981e-06
1.4198e-06
1.42207e-06
1.42247e-06
1.4237e-06
1.42358e-06
1.42239e-06
1.42192e-06
1.4198e-06
1.41981e-06
1.41981e-06
1.41981e-06
1.4198e-06
1.42203e-06
1.42234e-06
1.42258e-06
1.4235e-06
1.42238e-06
1.42194e-06
1.4198e-06
1.4198e-06
1.4198e-06
1.42207e-06
1.42234e-06
1.42255e-06
1.42371e-06
1.42351e-06
1.42247e-06
1.42242e-06
1.42238e-06
1.4224e-06
1.42247e-06
1.42258e-06
1.42371e-06
1.42363e-06
1.42368e-06
1.42363e-06
1.42364e-06
1.4237e-06
1.41073e-06
1.40942e-06
1.40934e-06
1.40939e-06
1.41062e-06
1.41075e-06
1.41081e-06
1.40961e-06
1.40901e-06
1.40698e-06
1.40698e-06
1.40698e-06
1.40912e-06
1.40956e-06
1.41068e-06
1.40961e-06
1.40898e-06
1.40698e-06
1.40698e-06
1.40698e-06
1.40698e-06
1.40698e-06
1.40909e-06
1.40956e-06
1.41069e-06
1.41073e-06
1.40901e-06
1.40698e-06
1.40698e-06
1.40698e-06
1.40698e-06
1.40698e-06
1.40698e-06
1.40698e-06
1.40911e-06
1.40965e-06
1.4108e-06
1.40942e-06
1.40698e-06
1.40698e-06
1.40698e-06
1.40698e-06
1.40698e-06
1.40698e-06
1.40698e-06
1.40698e-06
1.40698e-06
1.4096e-06
1.41085e-06
1.40934e-06
1.40698e-06
1.40698e-06
1.40698e-06
1.40698e-06
1.40698e-06
1.40698e-06
1.40698e-06
1.40698e-06
1.40698e-06
1.40955e-06
1.41081e-06
1.40939e-06
1.40698e-06
1.40698e-06
1.40698e-06
1.40698e-06
1.40698e-06
1.40698e-06
1.40698e-06
1.40698e-06
1.40698e-06
1.40957e-06
1.41081e-06
1.41062e-06
1.40912e-06
1.40698e-06
1.40698e-06
1.40698e-06
1.40698e-06
1.40698e-06
1.40698e-06
1.40698e-06
1.40924e-06
1.40964e-06
1.41088e-06
1.41075e-06
1.40956e-06
1.40909e-06
1.40698e-06
1.40698e-06
1.40698e-06
1.40698e-06
1.40698e-06
1.4092e-06
1.40952e-06
1.40975e-06
1.41068e-06
1.40956e-06
1.40911e-06
1.40698e-06
1.40698e-06
1.40698e-06
1.40924e-06
1.40952e-06
1.40972e-06
1.41088e-06
1.41069e-06
1.40965e-06
1.4096e-06
1.40955e-06
1.40957e-06
1.40964e-06
1.40975e-06
1.41088e-06
1.4108e-06
1.41085e-06
1.41081e-06
1.41081e-06
1.41088e-06
1.39791e-06
1.3966e-06
1.39651e-06
1.39656e-06
1.3978e-06
1.39793e-06
1.39798e-06
1.39678e-06
1.39619e-06
1.39415e-06
1.39415e-06
1.39415e-06
1.3963e-06
1.39674e-06
1.39785e-06
1.39678e-06
1.39616e-06
1.39415e-06
1.39415e-06
1.39415e-06
1.39415e-06
1.39415e-06
1.39626e-06
1.39673e-06
1.39786e-06
1.39791e-06
1.39619e-06
1.39415e-06
1.39415e-06
1.39415e-06
1.39415e-06
1.39415e-06
1.39415e-06
1.39415e-06
1.39628e-06
1.39682e-06
1.39797e-06
1.3966e-06
1.39415e-06
1.39415e-06
1.39415e-06
1.39415e-06
1.39415e-06
1.39415e-06
1.39415e-06
1.39415e-06
1.39415e-06
1.39677e-06
1.39802e-06
1.39651e-06
1.39415e-06
1.39415e-06
1.39415e-06
1.39415e-06
1.39415e-06
1.39415e-06
1.39415e-06
1.39415e-06
1.39415e-06
1.39673e-06
1.39798e-06
1.39656e-06
1.39415e-06
1.39415e-06
1.39415e-06
1.39415e-06
1.39415e-06
1.39415e-06
1.39415e-06
1.39415e-06
1.39415e-06
1.39674e-06
1.39799e-06
1.3978e-06
1.3963e-06
1.39415e-06
1.39415e-06
1.39415e-06
1.39415e-06
1.39415e-06
1.39415e-06
1.39415e-06
1.39642e-06
1.39682e-06
1.39805e-06
1.39793e-06
1.39674e-06
1.39626e-06
1.39415e-06
1.39415e-06
1.39415e-06
1.39415e-06
1.39415e-06
1.39638e-06
1.39669e-06
1.39693e-06
1.39785e-06
1.39673e-06
1.39628e-06
1.39415e-06
1.39415e-06
1.39415e-06
1.39642e-06
1.39669e-06
1.39689e-06
1.39806e-06
1.39786e-06
1.39682e-06
1.39677e-06
1.39672e-06
1.39674e-06
1.39682e-06
1.39693e-06
1.39806e-06
1.39797e-06
1.39802e-06
1.39798e-06
1.39799e-06
1.39805e-06
1.38508e-06
1.38377e-06
1.38368e-06
1.38373e-06
1.38497e-06
1.3851e-06
1.38515e-06
1.38395e-06
1.38336e-06
1.38132e-06
1.38132e-06
1.38132e-06
1.38347e-06
1.38391e-06
1.38503e-06
1.38395e-06
1.38333e-06
1.38132e-06
1.38132e-06
1.38132e-06
1.38132e-06
1.38132e-06
1.38343e-06
1.3839e-06
1.38503e-06
1.38508e-06
1.38336e-06
1.38132e-06
1.38132e-06
1.38132e-06
1.38132e-06
1.38132e-06
1.38132e-06
1.38132e-06
1.38346e-06
1.38399e-06
1.38515e-06
1.38377e-06
1.38132e-06
1.38132e-06
1.38132e-06
1.38132e-06
1.38132e-06
1.38132e-06
1.38132e-06
1.38132e-06
1.38132e-06
1.38394e-06
1.3852e-06
1.38368e-06
1.38132e-06
1.38132e-06
1.38132e-06
1.38132e-06
1.38132e-06
1.38132e-06
1.38132e-06
1.38132e-06
1.38132e-06
1.3839e-06
1.38516e-06
1.38373e-06
1.38132e-06
1.38132e-06
1.38132e-06
1.38132e-06
1.38132e-06
1.38132e-06
1.38132e-06
1.38132e-06
1.38132e-06
1.38392e-06
1.38516e-06
1.38497e-06
1.38347e-06
1.38132e-06
1.38132e-06
1.38132e-06
1.38132e-06
1.38132e-06
1.38132e-06
1.38132e-06
1.38359e-06
1.38399e-06
1.38523e-06
1.3851e-06
1.38391e-06
1.38343e-06
1.38132e-06
1.38132e-06
1.38132e-06
1.38132e-06
1.38132e-06
1.38355e-06
1.38386e-06
1.3841e-06
1.38503e-06
1.3839e-06
1.38346e-06
1.38132e-06
1.38132e-06
1.38132e-06
1.38359e-06
1.38386e-06
1.38407e-06
1.38523e-06
1.38503e-06
1.38399e-06
1.38394e-06
1.3839e-06
1.38392e-06
1.38399e-06
1.3841e-06
1.38523e-06
1.38515e-06
1.3852e-06
1.38516e-06
1.38516e-06
1.38523e-06
1.37226e-06
1.37094e-06
1.37086e-06
1.37091e-06
1.37214e-06
1.37227e-06
1.37233e-06
1.37113e-06
1.37053e-06
1.3685e-06
1.3685e-06
1.3685e-06
1.37064e-06
1.37108e-06
1.3722e-06
1.37113e-06
1.3705e-06
1.3685e-06
1.3685e-06
1.3685e-06
1.3685e-06
1.3685e-06
1.37061e-06
1.37108e-06
1.37221e-06
1.37226e-06
1.37053e-06
1.3685e-06
1.3685e-06
1.3685e-06
1.3685e-06
1.3685e-06
1.3685e-06
1.3685e-06
1.37063e-06
1.37117e-06
1.37232e-06
1.37094e-06
1.3685e-06
1.3685e-06
1.3685e-06
1.3685e-06
1.3685e-06
1.3685e-06
1.3685e-06
1.3685e-06
1.3685e-06
1.37112e-06
1.37237e-06
1.37086e-06
1.3685e-06
1.3685e-06
1.3685e-06
1.3685e-06
1.3685e-06
1.3685e-06
1.3685e-06
1.3685e-06
1.3685e-06
1.37107e-06
1.37233e-06
1.37091e-06
1.3685e-06
1.3685e-06
1.3685e-06
1.3685e-06
1.3685e-06
1.3685e-06
1.3685e-06
1.3685e-06
1.3685e-06
1.37109e-06
1.37233e-06
1.37214e-06
1.37064e-06
1.3685e-06
1.3685e-06
1.3685e-06
1.3685e-06
1.3685e-06
1.3685e-06
1.3685e-06
1.37076e-06
1.37116e-06
1.3724e-06
1.37227e-06
1.37108e-06
1.37061e-06
1.3685e-06
1.3685e-06
1.3685e-06
1.3685e-06
1.3685e-06
1.37072e-06
1.37104e-06
1.37127e-06
1.3722e-06
1.37108e-06
1.37063e-06
1.3685e-06
1.3685e-06
1.3685e-06
1.37076e-06
1.37104e-06
1.37124e-06
1.3724e-06
1.37221e-06
1.37117e-06
1.37112e-06
1.37107e-06
1.37109e-06
1.37116e-06
1.37127e-06
1.3724e-06
1.37232e-06
1.37237e-06
1.37233e-06
1.37233e-06
1.3724e-06
1.35943e-06
1.35812e-06
1.35803e-06
1.35808e-06
1.35932e-06
1.35945e-06
1.3595e-06
1.3583e-06
1.35771e-06
1.35567e-06
1.35567e-06
1.35567e-06
1.35782e-06
1.35826e-06
1.35937e-06
1.3583e-06
1.35768e-06
1.35567e-06
1.35567e-06
1.35567e-06
1.35567e-06
1.35567e-06
1.35778e-06
1.35825e-06
1.35938e-06
1.35943e-06
1.35771e-06
1.35567e-06
1.35567e-06
1.35567e-06
1.35567e-06
1.35567e-06
1.35567e-06
1.35567e-06
1.3578e-06
1.35834e-06
1.35949e-06
1.35812e-06
1.35567e-06
1.35567e-06
1.35567e-06
1.35567e-06
1.35567e-06
1.35567e-06
1.35567e-06
1.35567e-06
1.35567e-06
1.35829e-06
1.35954e-06
1.35803e-06
1.35567e-06
1.35567e-06
1.35567e-06
1.35567e-06
1.35567e-06
1.35567e-06
1.35567e-06
1.35567e-06
1.35567e-06
1.35825e-06
1.3595e-06
1.35808e-06
1.35567e-06
1.35567e-06
1.35567e-06
1.35567e-06
1.35567e-06
1.35567e-06
1.35567e-06
1.35567e-06
1.35567e-06
1.35827e-06
1.35951e-06
1.35932e-06
1.35782e-06
1.35567e-06
1.35567e-06
1.35567e-06
1.35567e-06
1.35567e-06
1.35567e-06
1.35567e-06
1.35794e-06
1.35834e-06
1.35957e-06
1.35945e-06
1.35826e-06
1.35778e-06
1.35567e-06
1.35567e-06
1.35567e-06
1.35567e-06
1.35567e-06
1.3579e-06
1.35821e-06
1.35845e-06
1.35937e-06
1.35825e-06
1.3578e-06
1.35567e-06
1.35567e-06
1.35567e-06
1.35794e-06
1.35821e-06
1.35842e-06
1.35958e-06
1.35938e-06
1.35834e-06
1.35829e-06
1.35825e-06
1.35827e-06
1.35834e-06
1.35845e-06
1.35958e-06
1.35949e-06
1.35954e-06
1.3595e-06
1.35951e-06
1.35957e-06
1.3466e-06
1.34529e-06
1.3452e-06
1.34526e-06
1.34649e-06
1.34662e-06
1.34667e-06
1.34548e-06
1.34488e-06
1.34284e-06
1.34284e-06
1.34284e-06
1.34499e-06
1.34543e-06
1.34655e-06
1.34548e-06
1.34485e-06
1.34284e-06
1.34284e-06
1.34284e-06
1.34284e-06
1.34284e-06
1.34496e-06
1.34542e-06
1.34655e-06
1.3466e-06
1.34488e-06
1.34284e-06
1.34284e-06
1.34284e-06
1.34284e-06
1.34284e-06
1.34284e-06
1.34284e-06
1.34498e-06
1.34551e-06
1.34667e-06
1.34529e-06
1.34284e-06
1.34284e-06
1.34284e-06
1.34284e-06
1.34284e-06
1.34284e-06
1.34284e-06
1.34284e-06
1.34284e-06
1.34546e-06
1.34672e-06
1.3452e-06
1.34284e-06
1.34284e-06
1.34284e-06
1.34284e-06
1.34284e-06
1.34284e-06
1.34284e-06
1.34284e-06
1.34284e-06
1.34542e-06
1.34668e-06
1.34526e-06
1.34284e-06
1.34284e-06
1.34284e-06
1.34284e-06
1.34284e-06
1.34284e-06
1.34284e-06
1.34284e-06
1.34284e-06
1.34544e-06
1.34668e-06
1.34649e-06
1.34499e-06
1.34284e-06
1.34284e-06
1.34284e-06
1.34284e-06
1.34284e-06
1.34284e-06
1.34284e-06
1.34511e-06
1.34551e-06
1.34675e-06
1.34662e-06
1.34543e-06
1.34496e-06
1.34284e-06
1.34284e-06
1.34284e-06
1.34284e-06
1.34284e-06
1.34507e-06
1.34538e-06
1.34562e-06
1.34655e-06
1.34542e-06
1.34498e-06
1.34284e-06
1.34284e-06
1.34284e-06
1.34511e-06
1.34538e-06
1.34559e-06
1.34675e-06
1.34655e-06
1.34551e-06
1.34546e-06
1.34542e-06
1.34544e-06
1.34551e-06
1.34562e-06
1.34675e-06
1.34667e-06
1.34672e-06
1.34668e-06
1.34668e-06
1.34675e-06
1.33378e-06
1.33246e-06
1.33238e-06
1.33243e-06
1.33366e-06
1.33379e-06
1.33385e-06
1.33265e-06
1.33206e-06
1.33002e-06
1.33002e-06
1.33002e-06
1.33217e-06
1.3326e-06
1.33372e-06
1.33265e-06
1.33203e-06
1.33002e-06
1.33002e-06
1.33002e-06
1.33002e-06
1.33002e-06
1.33213e-06
1.3326e-06
1.33373e-06
1.33378e-06
1.33206e-06
1.33002e-06
1.33002e-06
1.33002e-06
1.33002e-06
1.33002e-06
1.33002e-06
1.33002e-06
1.33215e-06
1.33269e-06
1.33384e-06
1.33246e-06
1.33002e-06
1.33002e-06
1.33002e-06
1.33002e-06
1.33002e-06
1.33002e-06
1.33002e-06
1.33002e-06
1.33002e-06
1.33264e-06
1.33389e-06
1.33238e-06
1.33002e-06
1.33002e-06
1.33002e-06
1.33002e-06
1.33002e-06
1.33002e-06
1.33002e-06
1.33002e-06
1.33002e-06
1.33259e-06
1.33385e-06
1.33243e-06
1.33002e-06
1.33002e-06
1.33002e-06
1.33002e-06
1.33002e-06
1.33002e-06
1.33002e-06
1.33002e-06
1.33002e-06
1.33261e-06
1.33385e-06
1.33366e-06
1.33217e-06
1.33002e-06
1.33002e-06
1.33002e-06
1.33002e-06
1.33002e-06
1.33002e-06
1.33002e-06
1.33228e-06
1.33269e-06
1.33392e-06
1.33379e-06
1.3326e-06
1.33213e-06
1.33002e-06
1.33002e-06
1.33002e-06
1.33002e-06
1.33002e-06
1.33224e-06
1.33256e-06
1.33279e-06
1.33372e-06
1.3326e-06
1.33215e-06
1.33002e-06
1.33002e-06
1.33002e-06
1.33228e-06
1.33256e-06
1.33276e-06
1.33392e-06
1.33373e-06
1.33269e-06
1.33264e-06
1.33259e-06
1.33261e-06
1.33269e-06
1.33279e-06
1.33392e-06
1.33384e-06
1.33389e-06
1.33385e-06
1.33385e-06
1.33392e-06
1.32095e-06
1.31964e-06
1.31955e-06
1.3196e-06
1.32084e-06
1.32097e-06
1.32102e-06
1.31982e-06
1.31923e-06
1.31719e-06
1.31719e-06
1.31719e-06
1.31934e-06
1.31978e-06
1.32089e-06
1.31982e-06
1.3192e-06
1.31719e-06
1.31719e-06
1.31719e-06
1.31719e-06
1.31719e-06
1.3193e-06
1.31977e-06
1.3209e-06
1.32095e-06
1.31923e-06
1.31719e-06
1.31719e-06
1.31719e-06
1.31719e-06
1.31719e-06
1.31719e-06
1.31719e-06
1.31932e-06
1.31986e-06
1.32102e-06
1.31964e-06
1.31719e-06
1.31719e-06
1.31719e-06
1.31719e-06
1.31719e-06
1.31719e-06
1.31719e-06
1.31719e-06
1.31719e-06
1.31981e-06
1.32106e-06
1.31955e-06
1.31719e-06
1.31719e-06
1.31719e-06
1.31719e-06
1.31719e-06
1.31719e-06
1.31719e-06
1.31719e-06
1.31719e-06
1.31977e-06
1.32102e-06
1.3196e-06
1.31719e-06
1.31719e-06
1.31719e-06
1.31719e-06
1.31719e-06
1.31719e-06
1.31719e-06
1.31719e-06
1.31719e-06
1.31979e-06
1.32103e-06
1.32084e-06
1.31934e-06
1.31719e-06
1.31719e-06
1.31719e-06
1.31719e-06
1.31719e-06
1.31719e-06
1.31719e-06
1.31946e-06
1.31986e-06
1.32109e-06
1.32097e-06
1.31978e-06
1.3193e-06
1.31719e-06
1.31719e-06
1.31719e-06
1.31719e-06
1.31719e-06
1.31942e-06
1.31973e-06
1.31997e-06
1.32089e-06
1.31977e-06
1.31932e-06
1.31719e-06
1.31719e-06
1.31719e-06
1.31946e-06
1.31973e-06
1.31994e-06
1.3211e-06
1.3209e-06
1.31986e-06
1.31981e-06
1.31977e-06
1.31979e-06
1.31986e-06
1.31997e-06
1.3211e-06
1.32102e-06
1.32106e-06
1.32102e-06
1.32103e-06
1.32109e-06
1.30812e-06
1.30681e-06
1.30672e-06
1.30678e-06
1.30801e-06
1.30814e-06
1.30819e-06
1.307e-06
1.3064e-06
1.30436e-06
1.30436e-06
1.30436e-06
1.30651e-06
1.30695e-06
1.30807e-06
1.307e-06
1.30637e-06
1.30436e-06
1.30436e-06
1.30436e-06
1.30436e-06
1.30436e-06
1.30648e-06
1.30694e-06
1.30807e-06
1.30812e-06
1.3064e-06
1.30436e-06
1.30436e-06
1.30436e-06
1.30436e-06
1.30436e-06
1.30436e-06
1.30436e-06
1.3065e-06
1.30703e-06
1.30819e-06
1.30681e-06
1.30436e-06
1.30436e-06
1.30436e-06
1.30436e-06
1.30436e-06
1.30436e-06
1.30436e-06
1.30436e-06
1.30436e-06
1.30698e-06
1.30824e-06
1.30672e-06
1.30436e-06
1.30436e-06
1.30436e-06
1.30436e-06
1.30436e-06
1.30436e-06
1.30436e-06
1.30436e-06
1.30436e-06
1.30694e-06
1.3082e-06
1.30678e-06
1.30436e-06
1.30436e-06
1.30436e-06
1.30436e-06
1.30436e-06
1.30436e-06
1.30436e-06
1.30436e-06
1.30436e-06
1.30696e-06
1.3082e-06
1.30801e-06
1.30651e-06
1.30436e-06
1.30436e-06
1.30436e-06
1.30436e-06
1.30436e-06
1.30436e-06
1.30436e-06
1.30663e-06
1.30703e-06
1.30827e-06
1.30814e-06
1.30695e-06
1.30648e-06
1.30436e-06
1.30436e-06
1.30436e-06
1.30436e-06
1.30436e-06
1.30659e-06
1.3069e-06
1.30714e-06
1.30807e-06
1.30694e-06
1.3065e-06
1.30436e-06
1.30436e-06
1.30436e-06
1.30663e-06
1.3069e-06
1.30711e-06
1.30827e-06
1.30807e-06
1.30703e-06
1.30698e-06
1.30694e-06
1.30696e-06
1.30703e-06
1.30714e-06
1.30827e-06
1.30819e-06
1.30824e-06
1.3082e-06
1.3082e-06
1.30827e-06
1.2953e-06
1.29399e-06
1.2939e-06
1.29395e-06
1.29518e-06
1.29531e-06
1.29537e-06
1.29417e-06
1.29358e-06
1.29154e-06
1.29154e-06
1.29154e-06
1.29369e-06
1.29413e-06
1.29524e-06
1.29417e-06
1.29355e-06
1.29154e-06
1.29154e-06
1.29154e-06
1.29154e-06
1.29154e-06
1.29365e-06
1.29412e-06
1.29525e-06
1.2953e-06
1.29358e-06
1.29154e-06
1.29154e-06
1.29154e-06
1.29154e-06
1.29154e-06
1.29154e-06
1.29154e-06
1.29367e-06
1.29421e-06
1.29536e-06
1.29399e-06
1.29154e-06
1.29154e-06
1.29154e-06
1.29154e-06
1.29154e-06
1.29154e-06
1.29154e-06
1.29154e-06
1.29154e-06
1.29416e-06
1.29541e-06
1.2939e-06
1.29154e-06
1.29154e-06
1.29154e-06
1.29154e-06
1.29154e-06
1.29154e-06
1.29154e-06
1.29154e-06
1.29154e-06
1.29411e-06
1.29537e-06
1.29395e-06
1.29154e-06
1.29154e-06
1.29154e-06
1.29154e-06
1.29154e-06
1.29154e-06
1.29154e-06
1.29154e-06
1.29154e-06
1.29413e-06
1.29537e-06
1.29518e-06
1.29369e-06
1.29154e-06
1.29154e-06
1.29154e-06
1.29154e-06
1.29154e-06
1.29154e-06
1.29154e-06
1.2938e-06
1.29421e-06
1.29544e-06
1.29531e-06
1.29413e-06
1.29365e-06
1.29154e-06
1.29154e-06
1.29154e-06
1.29154e-06
1.29154e-06
1.29376e-06
1.29408e-06
1.29431e-06
1.29524e-06
1.29412e-06
1.29367e-06
1.29154e-06
1.29154e-06
1.29154e-06
1.2938e-06
1.29408e-06
1.29428e-06
1.29544e-06
1.29525e-06
1.29421e-06
1.29416e-06
1.29411e-06
1.29413e-06
1.29421e-06
1.29431e-06
1.29544e-06
1.29536e-06
1.29541e-06
1.29537e-06
1.29537e-06
1.29544e-06
1.28247e-06
1.28116e-06
1.28107e-06
1.28112e-06
1.28236e-06
1.28249e-06
1.28254e-06
1.28134e-06
1.28075e-06
1.27871e-06
1.27871e-06
1.27871e-06
1.28086e-06
1.2813e-06
1.28241e-06
1.28134e-06
1.28072e-06
1.27871e-06
1.27871e-06
1.27871e-06
1.27871e-06
1.27871e-06
1.28082e-06
1.28129e-06
1.28242e-06
1.28247e-06
1.28075e-06
1.27871e-06
1.27871e-06
1.27871e-06
1.27871e-06
1.27871e-06
1.27871e-06
1.27871e-06
1.28085e-06
1.28138e-06
1.28254e-06
1.28116e-06
1.27871e-06
1.27871e-06
1.27871e-06
1.27871e-06
1.27871e-06
1.27871e-06
1.27871e-06
1.27871e-06
1.27871e-06
1.28133e-06
1.28259e-06
1.28107e-06
1.27871e-06
1.27871e-06
1.27871e-06
1.27871e-06
1.27871e-06
1.27871e-06
1.27871e-06
1.27871e-06
1.27871e-06
1.28129e-06
1.28254e-06
1.28112e-06
1.27871e-06
1.27871e-06
1.27871e-06
1.27871e-06
1.27871e-06
1.27871e-06
1.27871e-06
1.27871e-06
1.27871e-06
1.28131e-06
1.28255e-06
1.28236e-06
1.28086e-06
1.27871e-06
1.27871e-06
1.27871e-06
1.27871e-06
1.27871e-06
1.27871e-06
1.27871e-06
1.28098e-06
1.28138e-06
1.28261e-06
1.28249e-06
1.2813e-06
1.28082e-06
1.27871e-06
1.27871e-06
1.27871e-06
1.27871e-06
1.27871e-06
1.28094e-06
1.28125e-06
1.28149e-06
1.28241e-06
1.28129e-06
1.28085e-06
1.27871e-06
1.27871e-06
1.27871e-06
1.28098e-06
1.28125e-06
1.28146e-06
1.28262e-06
1.28242e-06
1.28138e-06
1.28133e-06
1.28129e-06
1.28131e-06
1.28138e-06
1.28149e-06
1.28262e-06
1.28254e-06
1.28259e-06
1.28254e-06
1.28255e-06
1.28261e-06
1.26964e-06
1.26833e-06
1.26824e-06
1.2683e-06
1.26953e-06
1.26966e-06
1.26971e-06
1.26852e-06
1.26792e-06
1.26588e-06
1.26588e-06
1.26588e-06
1.26803e-06
1.26847e-06
1.26959e-06
1.26852e-06
1.26789e-06
1.26588e-06
1.26588e-06
1.26588e-06
1.26588e-06
1.26588e-06
1.268e-06
1.26846e-06
1.26959e-06
1.26964e-06
1.26792e-06
1.26588e-06
1.26588e-06
1.26588e-06
1.26588e-06
1.26588e-06
1.26588e-06
1.26588e-06
1.26802e-06
1.26855e-06
1.26971e-06
1.26833e-06
1.26588e-06
1.26588e-06
1.26588e-06
1.26588e-06
1.26588e-06
1.26588e-06
1.26588e-06
1.26588e-06
1.26588e-06
1.2685e-06
1.26976e-06
1.26824e-06
1.26588e-06
1.26588e-06
1.26588e-06
1.26588e-06
1.26588e-06
1.26588e-06
1.26588e-06
1.26588e-06
1.26588e-06
1.26846e-06
1.26972e-06
1.2683e-06
1.26588e-06
1.26588e-06
1.26588e-06
1.26588e-06
1.26588e-06
1.26588e-06
1.26588e-06
1.26588e-06
1.26588e-06