/*--------------------------------*- C++ -*----------------------------------*\
| =========                 |                                                 |
| \\      /  F ield         | OpenFOAM: The Open Source CFD Toolbox           |
|  \\    /   O peration     | Version:  v2012                                 |
|   \\  /    A nd           | Website:  www.openfoam.com                      |
|    \\/     M anipulation  |                                                 |
\*---------------------------------------------------------------------------*/
FoamFile
{
    version     2.0;
    format      ascii;
    class       volScalarField;
    location    "72";
    object      p;
}
// * * * * * * * * * * * * * * * * * * * * * * * * * * * * * * * * * * * * * //

dimensions      [0 2 -2 0 0 0 0];


internalField   nonuniform List<scalar> 
292667
(
1.05033e-06
1.04141e-06
1.04075e-06
1.04081e-06
1.0417e-06
1.05117e-06
1.04162e-06
1.03935e-06
1.03802e-06
1.03746e-06
1.03753e-06
1.03825e-06
1.03978e-06
1.04225e-06
1.04162e-06
1.0387e-06
1.03685e-06
1.03583e-06
1.0354e-06
1.03545e-06
1.03601e-06
1.0372e-06
1.03927e-06
1.04241e-06
1.05033e-06
1.03935e-06
1.03685e-06
1.03535e-06
1.03451e-06
1.03415e-06
1.0342e-06
1.03466e-06
1.03564e-06
1.03734e-06
1.04013e-06
1.04978e-06
1.04141e-06
1.03802e-06
1.03583e-06
1.03451e-06
1.03376e-06
1.03344e-06
1.03348e-06
1.0339e-06
1.03477e-06
1.03627e-06
1.03874e-06
1.04472e-06
1.04075e-06
1.03746e-06
1.0354e-06
1.03415e-06
1.03344e-06
1.03313e-06
1.03317e-06
1.03357e-06
1.0344e-06
1.03582e-06
1.03816e-06
1.04322e-06
1.04081e-06
1.03753e-06
1.03545e-06
1.0342e-06
1.03348e-06
1.03317e-06
1.03321e-06
1.03362e-06
1.03445e-06
1.03588e-06
1.03825e-06
1.04352e-06
1.0417e-06
1.03825e-06
1.03601e-06
1.03466e-06
1.0339e-06
1.03357e-06
1.03362e-06
1.03405e-06
1.03494e-06
1.03647e-06
1.03901e-06
1.04501e-06
1.05117e-06
1.03978e-06
1.03719e-06
1.03564e-06
1.03477e-06
1.0344e-06
1.03445e-06
1.03494e-06
1.03595e-06
1.03773e-06
1.04062e-06
1.04963e-06
1.04225e-06
1.03927e-06
1.03734e-06
1.03627e-06
1.03582e-06
1.03588e-06
1.03647e-06
1.03773e-06
1.03992e-06
1.04568e-06
1.04241e-06
1.04013e-06
1.03874e-06
1.03816e-06
1.03825e-06
1.03901e-06
1.04062e-06
1.04568e-06
1.04978e-06
1.04472e-06
1.04322e-06
1.04352e-06
1.045e-06
1.04963e-06
1.0265e-06
1.02586e-06
1.02583e-06
1.02588e-06
1.02653e-06
1.02639e-06
1.02652e-06
1.02603e-06
1.0257e-06
1.02458e-06
1.02456e-06
1.02458e-06
1.02587e-06
1.0261e-06
1.02658e-06
1.02603e-06
1.02569e-06
1.02461e-06
1.02457e-06
1.02461e-06
1.02457e-06
1.02461e-06
1.02585e-06
1.02609e-06
1.02657e-06
1.0265e-06
1.0257e-06
1.02461e-06
1.02456e-06
1.02458e-06
1.02456e-06
1.02458e-06
1.02456e-06
1.02461e-06
1.02585e-06
1.02612e-06
1.02658e-06
1.02586e-06
1.02458e-06
1.02457e-06
1.02458e-06
1.02454e-06
1.02454e-06
1.02454e-06
1.02458e-06
1.02457e-06
1.02458e-06
1.02628e-06
1.02676e-06
1.02583e-06
1.02456e-06
1.02461e-06
1.02456e-06
1.02454e-06
1.02453e-06
1.02454e-06
1.02456e-06
1.02461e-06
1.02456e-06
1.0263e-06
1.0267e-06
1.02588e-06
1.02458e-06
1.02457e-06
1.02458e-06
1.02454e-06
1.02454e-06
1.02454e-06
1.02458e-06
1.02457e-06
1.02458e-06
1.02629e-06
1.02672e-06
1.02653e-06
1.02587e-06
1.02461e-06
1.02456e-06
1.02458e-06
1.02456e-06
1.02458e-06
1.02456e-06
1.02461e-06
1.02606e-06
1.02618e-06
1.02671e-06
1.02639e-06
1.0261e-06
1.02585e-06
1.02461e-06
1.02457e-06
1.02461e-06
1.02457e-06
1.02461e-06
1.02602e-06
1.02615e-06
1.02615e-06
1.02658e-06
1.02609e-06
1.02585e-06
1.02458e-06
1.02456e-06
1.02458e-06
1.02606e-06
1.02615e-06
1.02618e-06
1.02667e-06
1.02657e-06
1.02612e-06
1.02628e-06
1.0263e-06
1.02629e-06
1.02618e-06
1.02615e-06
1.02667e-06
1.02658e-06
1.02676e-06
1.0267e-06
1.02672e-06
1.02671e-06
1.01777e-06
1.01708e-06
1.01702e-06
1.01707e-06
1.01779e-06
1.0178e-06
1.01778e-06
1.01718e-06
1.01679e-06
1.01571e-06
1.01571e-06
1.01571e-06
1.01695e-06
1.01722e-06
1.01779e-06
1.01718e-06
1.01677e-06
1.01575e-06
1.01575e-06
1.01578e-06
1.01575e-06
1.01575e-06
1.01695e-06
1.01722e-06
1.0178e-06
1.01777e-06
1.01679e-06
1.01575e-06
1.01577e-06
1.01581e-06
1.0158e-06
1.01581e-06
1.01577e-06
1.01575e-06
1.01696e-06
1.01728e-06
1.01781e-06
1.01708e-06
1.01571e-06
1.01575e-06
1.01581e-06
1.01581e-06
1.01583e-06
1.01581e-06
1.01581e-06
1.01575e-06
1.01571e-06
1.01735e-06
1.01797e-06
1.01702e-06
1.01571e-06
1.01578e-06
1.0158e-06
1.01583e-06
1.01584e-06
1.01583e-06
1.0158e-06
1.01578e-06
1.01571e-06
1.01736e-06
1.01799e-06
1.01707e-06
1.01571e-06
1.01575e-06
1.01581e-06
1.01581e-06
1.01583e-06
1.01581e-06
1.01581e-06
1.01575e-06
1.01571e-06
1.01736e-06
1.01799e-06
1.01779e-06
1.01695e-06
1.01575e-06
1.01577e-06
1.01581e-06
1.0158e-06
1.01581e-06
1.01577e-06
1.01575e-06
1.01717e-06
1.01733e-06
1.01796e-06
1.0178e-06
1.01722e-06
1.01695e-06
1.01575e-06
1.01575e-06
1.01578e-06
1.01575e-06
1.01575e-06
1.01715e-06
1.01727e-06
1.01736e-06
1.01779e-06
1.01722e-06
1.01696e-06
1.01571e-06
1.01571e-06
1.01571e-06
1.01717e-06
1.01727e-06
1.01734e-06
1.01793e-06
1.0178e-06
1.01728e-06
1.01735e-06
1.01736e-06
1.01736e-06
1.01733e-06
1.01736e-06
1.01793e-06
1.01781e-06
1.01797e-06
1.01799e-06
1.01799e-06
1.01796e-06
1.00906e-06
1.00836e-06
1.0083e-06
1.00835e-06
1.00908e-06
1.0091e-06
1.00908e-06
1.00846e-06
1.00805e-06
1.00695e-06
1.00695e-06
1.00695e-06
1.00821e-06
1.00849e-06
1.00909e-06
1.00846e-06
1.00802e-06
1.00697e-06
1.00699e-06
1.007e-06
1.00699e-06
1.00697e-06
1.00819e-06
1.00848e-06
1.00909e-06
1.00906e-06
1.00805e-06
1.00697e-06
1.007e-06
1.00703e-06
1.00703e-06
1.00703e-06
1.007e-06
1.00697e-06
1.00821e-06
1.00856e-06
1.00911e-06
1.00836e-06
1.00695e-06
1.00699e-06
1.00703e-06
1.00704e-06
1.00706e-06
1.00704e-06
1.00703e-06
1.00699e-06
1.00695e-06
1.00863e-06
1.00926e-06
1.0083e-06
1.00695e-06
1.007e-06
1.00703e-06
1.00706e-06
1.00706e-06
1.00706e-06
1.00703e-06
1.007e-06
1.00695e-06
1.00862e-06
1.00928e-06
1.00835e-06
1.00695e-06
1.00699e-06
1.00703e-06
1.00704e-06
1.00706e-06
1.00704e-06
1.00703e-06
1.00699e-06
1.00695e-06
1.00862e-06
1.00928e-06
1.00908e-06
1.00821e-06
1.00697e-06
1.007e-06
1.00703e-06
1.00703e-06
1.00703e-06
1.007e-06
1.00697e-06
1.00843e-06
1.00861e-06
1.00925e-06
1.0091e-06
1.00849e-06
1.00819e-06
1.00697e-06
1.00699e-06
1.007e-06
1.00699e-06
1.00697e-06
1.0084e-06
1.00854e-06
1.00865e-06
1.00909e-06
1.00848e-06
1.00821e-06
1.00695e-06
1.00695e-06
1.00695e-06
1.00843e-06
1.00854e-06
1.00863e-06
1.00923e-06
1.00909e-06
1.00856e-06
1.00863e-06
1.00862e-06
1.00862e-06
1.00861e-06
1.00865e-06
1.00923e-06
1.00911e-06
1.00926e-06
1.00928e-06
1.00928e-06
1.00925e-06
1.00036e-06
9.99653e-07
9.99592e-07
9.99639e-07
1.00037e-06
1.00039e-06
1.00037e-06
9.99752e-07
9.99337e-07
9.98226e-07
9.98227e-07
9.98226e-07
9.99488e-07
9.99773e-07
1.00038e-06
9.99752e-07
9.99303e-07
9.98236e-07
9.98247e-07
9.98254e-07
9.98247e-07
9.98236e-07
9.99469e-07
9.99771e-07
1.00039e-06
1.00036e-06
9.99337e-07
9.98236e-07
9.98253e-07
9.9827e-07
9.98272e-07
9.9827e-07
9.98253e-07
9.98236e-07
9.99492e-07
9.99854e-07
1.0004e-06
9.99653e-07
9.98226e-07
9.98247e-07
9.9827e-07
9.98283e-07
9.98291e-07
9.98282e-07
9.9827e-07
9.98247e-07
9.98225e-07
9.99915e-07
1.00056e-06
9.99592e-07
9.98227e-07
9.98254e-07
9.98272e-07
9.98291e-07
9.98294e-07
9.98291e-07
9.98272e-07
9.98254e-07
9.98227e-07
9.99909e-07
1.00057e-06
9.99639e-07
9.98226e-07
9.98247e-07
9.9827e-07
9.98283e-07
9.98291e-07
9.98282e-07
9.9827e-07
9.98247e-07
9.98225e-07
9.99911e-07
1.00057e-06
1.00037e-06
9.99488e-07
9.98236e-07
9.98253e-07
9.9827e-07
9.98272e-07
9.9827e-07
9.98253e-07
9.98236e-07
9.99707e-07
9.99904e-07
1.00054e-06
1.00039e-06
9.99773e-07
9.99469e-07
9.98236e-07
9.98247e-07
9.98254e-07
9.98247e-07
9.98236e-07
9.99678e-07
9.99826e-07
9.99943e-07
1.00038e-06
9.9977e-07
9.99492e-07
9.98226e-07
9.98227e-07
9.98226e-07
9.99708e-07
9.99826e-07
9.9992e-07
1.00052e-06
1.00039e-06
9.99854e-07
9.99915e-07
9.99909e-07
9.99911e-07
9.99904e-07
9.99943e-07
1.00052e-06
1.0004e-06
1.00056e-06
1.00057e-06
1.00057e-06
1.00054e-06
9.91651e-07
9.90944e-07
9.90883e-07
9.9093e-07
9.91666e-07
9.91684e-07
9.91664e-07
9.91043e-07
9.90625e-07
9.89509e-07
9.8951e-07
9.89509e-07
9.90776e-07
9.91063e-07
9.91677e-07
9.91043e-07
9.9059e-07
9.89515e-07
9.89522e-07
9.89525e-07
9.89522e-07
9.89514e-07
9.90755e-07
9.9106e-07
9.9168e-07
9.91651e-07
9.90625e-07
9.89515e-07
9.89524e-07
9.89534e-07
9.89535e-07
9.89534e-07
9.89524e-07
9.89515e-07
9.90779e-07
9.91146e-07
9.91696e-07
9.90944e-07
9.89509e-07
9.89522e-07
9.89534e-07
9.89543e-07
9.89547e-07
9.89543e-07
9.89534e-07
9.89522e-07
9.89509e-07
9.91205e-07
9.91848e-07
9.90882e-07
9.8951e-07
9.89525e-07
9.89536e-07
9.89547e-07
9.89549e-07
9.89547e-07
9.89536e-07
9.89525e-07
9.8951e-07
9.91199e-07
9.91867e-07
9.9093e-07
9.89509e-07
9.89522e-07
9.89534e-07
9.89543e-07
9.89547e-07
9.89543e-07
9.89534e-07
9.89522e-07
9.89509e-07
9.912e-07
9.91867e-07
9.91666e-07
9.90776e-07
9.89514e-07
9.89524e-07
9.89534e-07
9.89536e-07
9.89534e-07
9.89524e-07
9.89514e-07
9.90995e-07
9.91195e-07
9.91837e-07
9.91684e-07
9.91063e-07
9.90755e-07
9.89515e-07
9.89522e-07
9.89525e-07
9.89522e-07
9.89515e-07
9.90963e-07
9.91116e-07
9.91236e-07
9.91677e-07
9.9106e-07
9.90779e-07
9.89509e-07
9.8951e-07
9.89509e-07
9.90995e-07
9.91116e-07
9.91212e-07
9.91817e-07
9.9168e-07
9.91146e-07
9.91205e-07
9.91199e-07
9.912e-07
9.91195e-07
9.91236e-07
9.91817e-07
9.91696e-07
9.91848e-07
9.91867e-07
9.91867e-07
9.91837e-07
9.82942e-07
9.82234e-07
9.82173e-07
9.82221e-07
9.82957e-07
9.82975e-07
9.82956e-07
9.82333e-07
9.81915e-07
9.80796e-07
9.80797e-07
9.80796e-07
9.82065e-07
9.82353e-07
9.82969e-07
9.82333e-07
9.81878e-07
9.80799e-07
9.80804e-07
9.80805e-07
9.80804e-07
9.80799e-07
9.82043e-07
9.82351e-07
9.82972e-07
9.82942e-07
9.81915e-07
9.80799e-07
9.80805e-07
9.8081e-07
9.80811e-07
9.8081e-07
9.80805e-07
9.80799e-07
9.82068e-07
9.82437e-07
9.82988e-07
9.82234e-07
9.80796e-07
9.80804e-07
9.8081e-07
9.80815e-07
9.80818e-07
9.80815e-07
9.8081e-07
9.80804e-07
9.80796e-07
9.82496e-07
9.83139e-07
9.82173e-07
9.80797e-07
9.80805e-07
9.80811e-07
9.80818e-07
9.80819e-07
9.80818e-07
9.80811e-07
9.80805e-07
9.80797e-07
9.82488e-07
9.83158e-07
9.82221e-07
9.80796e-07
9.80804e-07
9.8081e-07
9.80815e-07
9.80818e-07
9.80815e-07
9.8081e-07
9.80804e-07
9.80796e-07
9.8249e-07
9.83158e-07
9.82957e-07
9.82065e-07
9.80799e-07
9.80805e-07
9.8081e-07
9.80811e-07
9.8081e-07
9.80805e-07
9.80799e-07
9.82284e-07
9.82486e-07
9.83128e-07
9.82975e-07
9.82353e-07
9.82043e-07
9.80799e-07
9.80804e-07
9.80805e-07
9.80804e-07
9.80799e-07
9.82252e-07
9.82406e-07
9.82528e-07
9.82969e-07
9.82351e-07
9.82068e-07
9.80796e-07
9.80797e-07
9.80796e-07
9.82284e-07
9.82406e-07
9.82503e-07
9.83109e-07
9.82972e-07
9.82437e-07
9.82496e-07
9.82488e-07
9.8249e-07
9.82486e-07
9.82528e-07
9.83109e-07
9.82988e-07
9.83139e-07
9.83158e-07
9.83158e-07
9.83128e-07
9.74233e-07
9.73524e-07
9.73463e-07
9.73511e-07
9.74247e-07
9.74266e-07
9.74247e-07
9.73624e-07
9.73204e-07
9.72085e-07
9.72086e-07
9.72085e-07
9.73355e-07
9.73644e-07
9.74259e-07
9.73624e-07
9.73167e-07
9.72087e-07
9.7209e-07
9.7209e-07
9.7209e-07
9.72087e-07
9.73333e-07
9.73641e-07
9.74263e-07
9.74233e-07
9.73204e-07
9.72086e-07
9.7209e-07
9.72092e-07
9.72094e-07
9.72092e-07
9.7209e-07
9.72087e-07
9.73358e-07
9.73727e-07
9.74279e-07
9.73524e-07
9.72085e-07
9.7209e-07
9.72093e-07
9.72096e-07
9.72097e-07
9.72096e-07
9.72093e-07
9.7209e-07
9.72085e-07
9.73786e-07
9.7443e-07
9.73463e-07
9.72086e-07
9.7209e-07
9.72094e-07
9.72097e-07
9.72098e-07
9.72097e-07
9.72094e-07
9.7209e-07
9.72086e-07
9.73779e-07
9.74448e-07
9.73511e-07
9.72085e-07
9.7209e-07
9.72093e-07
9.72096e-07
9.72097e-07
9.72096e-07
9.72093e-07
9.7209e-07
9.72085e-07
9.73781e-07
9.74449e-07
9.74247e-07
9.73355e-07
9.72087e-07
9.7209e-07
9.72093e-07
9.72094e-07
9.72093e-07
9.7209e-07
9.72087e-07
9.73574e-07
9.73777e-07
9.74419e-07
9.74266e-07
9.73644e-07
9.73333e-07
9.72087e-07
9.7209e-07
9.7209e-07
9.7209e-07
9.72087e-07
9.73541e-07
9.73697e-07
9.73818e-07
9.74259e-07
9.73641e-07
9.73358e-07
9.72085e-07
9.72086e-07
9.72085e-07
9.73574e-07
9.73697e-07
9.73794e-07
9.744e-07
9.74263e-07
9.73727e-07
9.73786e-07
9.73779e-07
9.73781e-07
9.73777e-07
9.73818e-07
9.744e-07
9.74279e-07
9.7443e-07
9.74448e-07
9.74449e-07
9.74419e-07
9.65523e-07
9.64815e-07
9.64753e-07
9.64801e-07
9.65538e-07
9.65556e-07
9.65537e-07
9.64914e-07
9.64494e-07
9.63374e-07
9.63375e-07
9.63374e-07
9.64645e-07
9.64934e-07
9.6555e-07
9.64914e-07
9.64457e-07
9.63375e-07
9.63378e-07
9.63377e-07
9.63378e-07
9.63375e-07
9.64623e-07
9.64931e-07
9.65553e-07
9.65523e-07
9.64495e-07
9.63375e-07
9.63378e-07
9.63379e-07
9.6338e-07
9.63379e-07
9.63378e-07
9.63375e-07
9.64648e-07
9.65018e-07
9.65569e-07
9.64815e-07
9.63374e-07
9.63378e-07
9.63379e-07
9.63381e-07
9.63381e-07
9.63381e-07
9.63379e-07
9.63378e-07
9.63374e-07
9.65077e-07
9.65721e-07
9.64753e-07
9.63375e-07
9.63378e-07
9.6338e-07
9.63381e-07
9.63382e-07
9.63381e-07
9.6338e-07
9.63378e-07
9.63375e-07
9.65069e-07
9.65739e-07
9.64801e-07
9.63374e-07
9.63378e-07
9.63379e-07
9.63381e-07
9.63381e-07
9.63381e-07
9.63379e-07
9.63378e-07
9.63374e-07
9.65071e-07
9.65739e-07
9.65538e-07
9.64645e-07
9.63375e-07
9.63378e-07
9.63379e-07
9.6338e-07
9.63379e-07
9.63378e-07
9.63375e-07
9.64864e-07
9.65067e-07
9.65709e-07
9.65557e-07
9.64934e-07
9.64623e-07
9.63375e-07
9.63378e-07
9.63378e-07
9.63378e-07
9.63375e-07
9.64831e-07
9.64987e-07
9.65109e-07
9.6555e-07
9.64931e-07
9.64648e-07
9.63374e-07
9.63375e-07
9.63374e-07
9.64864e-07
9.64987e-07
9.65085e-07
9.65691e-07
9.65553e-07
9.65018e-07
9.65077e-07
9.65069e-07
9.65071e-07
9.65067e-07
9.65109e-07
9.6569e-07
9.65569e-07
9.65721e-07
9.65739e-07
9.65739e-07
9.65709e-07
9.56814e-07
9.56105e-07
9.56044e-07
9.56091e-07
9.56828e-07
9.56847e-07
9.56828e-07
9.56204e-07
9.55785e-07
9.54664e-07
9.54665e-07
9.54664e-07
9.55936e-07
9.56224e-07
9.56841e-07
9.56204e-07
9.55748e-07
9.54665e-07
9.54667e-07
9.54666e-07
9.54667e-07
9.54665e-07
9.55913e-07
9.56222e-07
9.56844e-07
9.56814e-07
9.55785e-07
9.54665e-07
9.54667e-07
9.54667e-07
9.54668e-07
9.54667e-07
9.54667e-07
9.54665e-07
9.55938e-07
9.56308e-07
9.5686e-07
9.56105e-07
9.54664e-07
9.54667e-07
9.54667e-07
9.54668e-07
9.54668e-07
9.54668e-07
9.54667e-07
9.54667e-07
9.54664e-07
9.56367e-07
9.57011e-07
9.56044e-07
9.54665e-07
9.54666e-07
9.54668e-07
9.54668e-07
9.54669e-07
9.54668e-07
9.54668e-07
9.54666e-07
9.54665e-07
9.56359e-07
9.57029e-07
9.56091e-07
9.54664e-07
9.54667e-07
9.54667e-07
9.54668e-07
9.54668e-07
9.54668e-07
9.54667e-07
9.54667e-07
9.54664e-07
9.56361e-07
9.57029e-07
9.56828e-07
9.55936e-07
9.54665e-07
9.54667e-07
9.54667e-07
9.54668e-07
9.54667e-07
9.54667e-07
9.54665e-07
9.56154e-07
9.56357e-07
9.57e-07
9.56847e-07
9.56224e-07
9.55913e-07
9.54665e-07
9.54667e-07
9.54666e-07
9.54667e-07
9.54665e-07
9.56121e-07
9.56277e-07
9.56399e-07
9.56841e-07
9.56222e-07
9.55938e-07
9.54664e-07
9.54665e-07
9.54664e-07
9.56154e-07
9.56277e-07
9.56375e-07
9.56981e-07
9.56844e-07
9.56308e-07
9.56367e-07
9.56359e-07
9.56361e-07
9.56357e-07
9.56399e-07
9.56981e-07
9.5686e-07
9.57011e-07
9.57029e-07
9.57029e-07
9.57e-07
9.48104e-07
9.47395e-07
9.47334e-07
9.47382e-07
9.48119e-07
9.48137e-07
9.48118e-07
9.47495e-07
9.47075e-07
9.45954e-07
9.45955e-07
9.45954e-07
9.47226e-07
9.47515e-07
9.48131e-07
9.47495e-07
9.47038e-07
9.45955e-07
9.45957e-07
9.45956e-07
9.45957e-07
9.45955e-07
9.47203e-07
9.47512e-07
9.48134e-07
9.48104e-07
9.47075e-07
9.45955e-07
9.45956e-07
9.45956e-07
9.45956e-07
9.45956e-07
9.45956e-07
9.45955e-07
9.47228e-07
9.47598e-07
9.4815e-07
9.47395e-07
9.45954e-07
9.45957e-07
9.45956e-07
9.45957e-07
9.45957e-07
9.45957e-07
9.45956e-07
9.45957e-07
9.45954e-07
9.47657e-07
9.48301e-07
9.47334e-07
9.45955e-07
9.45956e-07
9.45957e-07
9.45957e-07
9.45957e-07
9.45957e-07
9.45956e-07
9.45956e-07
9.45955e-07
9.47649e-07
9.4832e-07
9.47382e-07
9.45954e-07
9.45957e-07
9.45956e-07
9.45957e-07
9.45957e-07
9.45957e-07
9.45956e-07
9.45957e-07
9.45954e-07
9.47651e-07
9.4832e-07
9.48119e-07
9.47226e-07
9.45955e-07
9.45956e-07
9.45956e-07
9.45956e-07
9.45956e-07
9.45956e-07
9.45955e-07
9.47444e-07
9.47648e-07
9.4829e-07
9.48137e-07
9.47515e-07
9.47203e-07
9.45955e-07
9.45957e-07
9.45956e-07
9.45957e-07
9.45955e-07
9.47411e-07
9.47568e-07
9.4769e-07
9.48131e-07
9.47512e-07
9.47228e-07
9.45954e-07
9.45955e-07
9.45954e-07
9.47444e-07
9.47568e-07
9.47665e-07
9.48271e-07
9.48134e-07
9.47598e-07
9.47657e-07
9.47649e-07
9.47651e-07
9.47648e-07
9.4769e-07
9.48271e-07
9.4815e-07
9.48301e-07
9.4832e-07
9.4832e-07
9.4829e-07
9.39395e-07
9.38686e-07
9.38624e-07
9.38672e-07
9.39409e-07
9.39428e-07
9.39409e-07
9.38785e-07
9.38365e-07
9.37245e-07
9.37245e-07
9.37244e-07
9.38516e-07
9.38805e-07
9.39421e-07
9.38785e-07
9.38328e-07
9.37245e-07
9.37247e-07
9.37246e-07
9.37247e-07
9.37245e-07
9.38493e-07
9.38802e-07
9.39424e-07
9.39395e-07
9.38365e-07
9.37245e-07
9.37246e-07
9.37245e-07
9.37246e-07
9.37245e-07
9.37246e-07
9.37245e-07
9.38518e-07
9.38889e-07
9.3944e-07
9.38686e-07
9.37245e-07
9.37247e-07
9.37245e-07
9.37247e-07
9.37246e-07
9.37247e-07
9.37245e-07
9.37247e-07
9.37244e-07
9.38947e-07
9.39592e-07
9.38624e-07
9.37245e-07
9.37246e-07
9.37246e-07
9.37246e-07
9.37246e-07
9.37246e-07
9.37246e-07
9.37246e-07
9.37245e-07
9.38939e-07
9.3961e-07
9.38672e-07
9.37244e-07
9.37247e-07
9.37245e-07
9.37247e-07
9.37246e-07
9.37247e-07
9.37245e-07
9.37247e-07
9.37244e-07
9.38941e-07
9.3961e-07
9.39409e-07
9.38516e-07
9.37245e-07
9.37246e-07
9.37245e-07
9.37246e-07
9.37245e-07
9.37246e-07
9.37245e-07
9.38734e-07
9.38938e-07
9.3958e-07
9.39428e-07
9.38805e-07
9.38493e-07
9.37245e-07
9.37247e-07
9.37246e-07
9.37247e-07
9.37245e-07
9.38702e-07
9.38858e-07
9.3898e-07
9.39421e-07
9.38802e-07
9.38518e-07
9.37244e-07
9.37245e-07
9.37244e-07
9.38735e-07
9.38858e-07
9.38956e-07
9.39561e-07
9.39424e-07
9.38889e-07
9.38947e-07
9.38939e-07
9.38941e-07
9.38938e-07
9.3898e-07
9.39561e-07
9.3944e-07
9.39592e-07
9.3961e-07
9.3961e-07
9.3958e-07
9.30685e-07
9.29976e-07
9.29914e-07
9.29962e-07
9.30699e-07
9.30718e-07
9.30699e-07
9.30075e-07
9.29655e-07
9.28535e-07
9.28535e-07
9.28535e-07
9.29806e-07
9.30095e-07
9.30712e-07
9.30075e-07
9.29618e-07
9.28535e-07
9.28537e-07
9.28536e-07
9.28537e-07
9.28535e-07
9.29783e-07
9.30093e-07
9.30715e-07
9.30685e-07
9.29655e-07
9.28535e-07
9.28536e-07
9.28535e-07
9.28536e-07
9.28535e-07
9.28536e-07
9.28535e-07
9.29809e-07
9.30179e-07
9.30731e-07
9.29976e-07
9.28535e-07
9.28537e-07
9.28535e-07
9.28537e-07
9.28536e-07
9.28537e-07
9.28535e-07
9.28537e-07
9.28535e-07
9.30238e-07
9.30882e-07
9.29914e-07
9.28535e-07
9.28536e-07
9.28536e-07
9.28536e-07
9.28536e-07
9.28536e-07
9.28536e-07
9.28536e-07
9.28535e-07
9.3023e-07
9.309e-07
9.29962e-07
9.28535e-07
9.28537e-07
9.28535e-07
9.28537e-07
9.28536e-07
9.28537e-07
9.28535e-07
9.28537e-07
9.28535e-07
9.30232e-07
9.309e-07
9.30699e-07
9.29806e-07
9.28535e-07
9.28536e-07
9.28535e-07
9.28536e-07
9.28535e-07
9.28536e-07
9.28535e-07
9.30025e-07
9.30228e-07
9.3087e-07
9.30718e-07
9.30095e-07
9.29783e-07
9.28535e-07
9.28537e-07
9.28536e-07
9.28537e-07
9.28535e-07
9.29992e-07
9.30148e-07
9.3027e-07
9.30712e-07
9.30093e-07
9.29809e-07
9.28535e-07
9.28535e-07
9.28535e-07
9.30025e-07
9.30148e-07
9.30246e-07
9.30852e-07
9.30715e-07
9.30179e-07
9.30238e-07
9.3023e-07
9.30232e-07
9.30228e-07
9.3027e-07
9.30852e-07
9.30731e-07
9.30882e-07
9.309e-07
9.309e-07
9.3087e-07
9.21975e-07
9.21266e-07
9.21205e-07
9.21253e-07
9.21989e-07
9.22008e-07
9.21989e-07
9.21366e-07
9.20946e-07
9.19825e-07
9.19826e-07
9.19825e-07
9.21097e-07
9.21385e-07
9.22002e-07
9.21366e-07
9.20909e-07
9.19825e-07
9.19827e-07
9.19826e-07
9.19827e-07
9.19825e-07
9.21074e-07
9.21383e-07
9.22005e-07
9.21975e-07
9.20946e-07
9.19825e-07
9.19826e-07
9.19826e-07
9.19826e-07
9.19826e-07
9.19826e-07
9.19825e-07
9.21099e-07
9.21469e-07
9.22021e-07
9.21266e-07
9.19825e-07
9.19827e-07
9.19826e-07
9.19827e-07
9.19826e-07
9.19827e-07
9.19826e-07
9.19827e-07
9.19825e-07
9.21528e-07
9.22172e-07
9.21205e-07
9.19826e-07
9.19826e-07
9.19826e-07
9.19826e-07
9.19826e-07
9.19826e-07
9.19826e-07
9.19826e-07
9.19826e-07
9.2152e-07
9.22191e-07
9.21253e-07
9.19825e-07
9.19827e-07
9.19826e-07
9.19827e-07
9.19826e-07
9.19827e-07
9.19826e-07
9.19827e-07
9.19825e-07
9.21522e-07
9.22191e-07
9.21989e-07
9.21097e-07
9.19825e-07
9.19826e-07
9.19826e-07
9.19826e-07
9.19826e-07
9.19826e-07
9.19825e-07
9.21315e-07
9.21519e-07
9.22161e-07
9.22008e-07
9.21385e-07
9.21074e-07
9.19825e-07
9.19827e-07
9.19826e-07
9.19827e-07
9.19825e-07
9.21282e-07
9.21439e-07
9.21561e-07
9.22002e-07
9.21383e-07
9.21099e-07
9.19825e-07
9.19826e-07
9.19825e-07
9.21315e-07
9.21439e-07
9.21536e-07
9.22142e-07
9.22005e-07
9.21469e-07
9.21528e-07
9.2152e-07
9.21522e-07
9.21519e-07
9.21561e-07
9.22142e-07
9.22021e-07
9.22172e-07
9.22191e-07
9.22191e-07
9.22161e-07
9.13265e-07
9.12556e-07
9.12495e-07
9.12543e-07
9.1328e-07
9.13298e-07
9.13279e-07
9.12656e-07
9.12236e-07
9.11115e-07
9.11116e-07
9.11115e-07
9.12387e-07
9.12676e-07
9.13292e-07
9.12656e-07
9.12199e-07
9.11116e-07
9.11117e-07
9.11116e-07
9.11117e-07
9.11116e-07
9.12364e-07
9.12673e-07
9.13295e-07
9.13265e-07
9.12236e-07
9.11116e-07
9.11116e-07
9.11116e-07
9.11116e-07
9.11116e-07
9.11116e-07
9.11116e-07
9.12389e-07
9.1276e-07
9.13311e-07
9.12556e-07
9.11115e-07
9.11117e-07
9.11116e-07
9.11117e-07
9.11116e-07
9.11117e-07
9.11116e-07
9.11117e-07
9.11115e-07
9.12818e-07
9.13462e-07
9.12495e-07
9.11116e-07
9.11116e-07
9.11116e-07
9.11116e-07
9.11116e-07
9.11116e-07
9.11116e-07
9.11116e-07
9.11116e-07
9.1281e-07
9.13481e-07
9.12543e-07
9.11115e-07
9.11117e-07
9.11116e-07
9.11117e-07
9.11116e-07
9.11117e-07
9.11116e-07
9.11117e-07
9.11115e-07
9.12812e-07
9.13481e-07
9.1328e-07
9.12387e-07
9.11116e-07
9.11116e-07
9.11116e-07
9.11116e-07
9.11116e-07
9.11116e-07
9.11116e-07
9.12605e-07
9.12809e-07
9.13451e-07
9.13298e-07
9.12676e-07
9.12364e-07
9.11116e-07
9.11117e-07
9.11116e-07
9.11117e-07
9.11116e-07
9.12572e-07
9.12729e-07
9.12851e-07
9.13292e-07
9.12673e-07
9.12389e-07
9.11115e-07
9.11116e-07
9.11115e-07
9.12605e-07
9.12729e-07
9.12827e-07
9.13432e-07
9.13295e-07
9.1276e-07
9.12818e-07
9.1281e-07
9.12812e-07
9.12809e-07
9.12851e-07
9.13432e-07
9.13311e-07
9.13463e-07
9.13481e-07
9.13481e-07
9.13451e-07
9.04556e-07
9.03847e-07
9.03785e-07
9.03833e-07
9.0457e-07
9.04589e-07
9.0457e-07
9.03946e-07
9.03526e-07
9.02406e-07
9.02406e-07
9.02405e-07
9.03677e-07
9.03966e-07
9.04582e-07
9.03946e-07
9.03489e-07
9.02406e-07
9.02408e-07
9.02406e-07
9.02408e-07
9.02406e-07
9.03654e-07
9.03964e-07
9.04586e-07
9.04556e-07
9.03526e-07
9.02406e-07
9.02407e-07
9.02406e-07
9.02406e-07
9.02406e-07
9.02407e-07
9.02406e-07
9.0368e-07
9.0405e-07
9.04601e-07
9.03847e-07
9.02406e-07
9.02408e-07
9.02406e-07
9.02407e-07
9.02406e-07
9.02407e-07
9.02406e-07
9.02407e-07
9.02405e-07
9.04109e-07
9.04753e-07
9.03785e-07
9.02406e-07
9.02406e-07
9.02406e-07
9.02406e-07
9.02406e-07
9.02406e-07
9.02406e-07
9.02406e-07
9.02406e-07
9.04101e-07
9.04771e-07
9.03833e-07
9.02406e-07
9.02408e-07
9.02406e-07
9.02407e-07
9.02406e-07
9.02407e-07
9.02406e-07
9.02408e-07
9.02405e-07
9.04103e-07
9.04771e-07
9.0457e-07
9.03677e-07
9.02406e-07
9.02407e-07
9.02406e-07
9.02406e-07
9.02406e-07
9.02407e-07
9.02406e-07
9.03896e-07
9.04099e-07
9.04741e-07
9.04589e-07
9.03966e-07
9.03654e-07
9.02406e-07
9.02408e-07
9.02406e-07
9.02408e-07
9.02406e-07
9.03863e-07
9.04019e-07
9.04141e-07
9.04583e-07
9.03964e-07
9.0368e-07
9.02406e-07
9.02406e-07
9.02406e-07
9.03896e-07
9.04019e-07
9.04117e-07
9.04723e-07
9.04586e-07
9.0405e-07
9.04109e-07
9.04101e-07
9.04103e-07
9.04099e-07
9.04141e-07
9.04723e-07
9.04601e-07
9.04753e-07
9.04771e-07
9.04771e-07
9.04741e-07
8.95846e-07
8.95137e-07
8.95076e-07
8.95123e-07
8.9586e-07
8.95879e-07
8.9586e-07
8.95237e-07
8.94816e-07
8.93696e-07
8.93697e-07
8.93696e-07
8.94968e-07
8.95256e-07
8.95873e-07
8.95237e-07
8.94779e-07
8.93696e-07
8.93698e-07
8.93697e-07
8.93698e-07
8.93696e-07
8.94945e-07
8.95254e-07
8.95876e-07
8.95846e-07
8.94817e-07
8.93696e-07
8.93697e-07
8.93696e-07
8.93697e-07
8.93696e-07
8.93697e-07
8.93696e-07
8.9497e-07
8.9534e-07
8.95892e-07
8.95137e-07
8.93696e-07
8.93698e-07
8.93696e-07
8.93698e-07
8.93696e-07
8.93698e-07
8.93696e-07
8.93698e-07
8.93696e-07
8.95399e-07
8.96043e-07
8.95076e-07
8.93697e-07
8.93697e-07
8.93697e-07
8.93697e-07
8.93697e-07
8.93696e-07
8.93697e-07
8.93697e-07
8.93696e-07
8.95391e-07
8.96061e-07
8.95123e-07
8.93696e-07
8.93698e-07
8.93696e-07
8.93698e-07
8.93696e-07
8.93698e-07
8.93696e-07
8.93698e-07
8.93696e-07
8.95393e-07
8.96062e-07
8.9586e-07
8.94968e-07
8.93696e-07
8.93697e-07
8.93696e-07
8.93697e-07
8.93696e-07
8.93697e-07
8.93696e-07
8.95186e-07
8.9539e-07
8.96032e-07
8.95879e-07
8.95256e-07
8.94945e-07
8.93696e-07
8.93698e-07
8.93697e-07
8.93698e-07
8.93696e-07
8.95153e-07
8.95309e-07
8.95432e-07
8.95873e-07
8.95254e-07
8.9497e-07
8.93696e-07
8.93696e-07
8.93696e-07
8.95186e-07
8.95309e-07
8.95407e-07
8.96013e-07
8.95876e-07
8.9534e-07
8.95399e-07
8.95391e-07
8.95393e-07
8.9539e-07
8.95432e-07
8.96013e-07
8.95892e-07
8.96043e-07
8.96061e-07
8.96062e-07
8.96032e-07
8.87136e-07
8.86427e-07
8.86366e-07
8.86414e-07
8.87151e-07
8.87169e-07
8.8715e-07
8.86527e-07
8.86107e-07
8.84986e-07
8.84987e-07
8.84986e-07
8.86258e-07
8.86547e-07
8.87163e-07
8.86527e-07
8.8607e-07
8.84987e-07
8.84988e-07
8.84987e-07
8.84988e-07
8.84986e-07
8.86235e-07
8.86544e-07
8.87166e-07
8.87136e-07
8.86107e-07
8.84987e-07
8.84987e-07
8.84987e-07
8.84987e-07
8.84987e-07
8.84987e-07
8.84986e-07
8.8626e-07
8.8663e-07
8.87182e-07
8.86427e-07
8.84986e-07
8.84988e-07
8.84987e-07
8.84988e-07
8.84987e-07
8.84988e-07
8.84987e-07
8.84988e-07
8.84986e-07
8.86689e-07
8.87333e-07
8.86366e-07
8.84987e-07
8.84987e-07
8.84987e-07
8.84987e-07
8.84987e-07
8.84987e-07
8.84987e-07
8.84987e-07
8.84987e-07
8.86681e-07
8.87352e-07
8.86414e-07
8.84986e-07
8.84988e-07
8.84987e-07
8.84988e-07
8.84987e-07
8.84988e-07
8.84987e-07
8.84988e-07
8.84986e-07
8.86683e-07
8.87352e-07
8.87151e-07
8.86258e-07
8.84986e-07
8.84987e-07
8.84987e-07
8.84987e-07
8.84987e-07
8.84987e-07
8.84986e-07
8.86476e-07
8.8668e-07
8.87322e-07
8.87169e-07
8.86547e-07
8.86235e-07
8.84986e-07
8.84988e-07
8.84987e-07
8.84988e-07
8.84986e-07
8.86443e-07
8.866e-07
8.86722e-07
8.87163e-07
8.86544e-07
8.8626e-07
8.84986e-07
8.84987e-07
8.84986e-07
8.86476e-07
8.866e-07
8.86697e-07
8.87303e-07
8.87166e-07
8.8663e-07
8.86689e-07
8.86681e-07
8.86683e-07
8.8668e-07
8.86722e-07
8.87303e-07
8.87182e-07
8.87333e-07
8.87352e-07
8.87352e-07
8.87322e-07
8.78427e-07
8.77718e-07
8.77656e-07
8.77704e-07
8.78441e-07
8.7846e-07
8.78441e-07
8.77817e-07
8.77397e-07
8.76276e-07
8.76277e-07
8.76276e-07
8.77548e-07
8.77837e-07
8.78453e-07
8.77817e-07
8.7736e-07
8.76277e-07
8.76278e-07
8.76277e-07
8.76278e-07
8.76277e-07
8.77525e-07
8.77834e-07
8.78457e-07
8.78427e-07
8.77397e-07
8.76277e-07
8.76278e-07
8.76277e-07
8.76277e-07
8.76277e-07
8.76278e-07
8.76277e-07
8.7755e-07
8.77921e-07
8.78472e-07
8.77718e-07
8.76276e-07
8.76278e-07
8.76277e-07
8.76278e-07
8.76277e-07
8.76278e-07
8.76277e-07
8.76278e-07
8.76276e-07
8.77979e-07
8.78624e-07
8.77656e-07
8.76277e-07
8.76277e-07
8.76277e-07
8.76277e-07
8.76277e-07
8.76277e-07
8.76277e-07
8.76277e-07
8.76277e-07
8.77971e-07
8.78642e-07
8.77704e-07
8.76276e-07
8.76278e-07
8.76277e-07
8.76278e-07
8.76277e-07
8.76278e-07
8.76277e-07
8.76278e-07
8.76276e-07
8.77974e-07
8.78642e-07
8.78441e-07
8.77548e-07
8.76277e-07
8.76278e-07
8.76277e-07
8.76277e-07
8.76277e-07
8.76278e-07
8.76277e-07
8.77766e-07
8.7797e-07
8.78612e-07
8.7846e-07
8.77837e-07
8.77525e-07
8.76277e-07
8.76278e-07
8.76277e-07
8.76278e-07
8.76277e-07
8.77734e-07
8.7789e-07
8.78012e-07
8.78453e-07
8.77834e-07
8.7755e-07
8.76276e-07
8.76277e-07
8.76276e-07
8.77767e-07
8.7789e-07
8.77988e-07
8.78594e-07
8.78456e-07
8.77921e-07
8.77979e-07
8.77971e-07
8.77974e-07
8.7797e-07
8.78012e-07
8.78593e-07
8.78472e-07
8.78624e-07
8.78642e-07
8.78642e-07
8.78612e-07
8.69717e-07
8.69008e-07
8.68946e-07
8.68994e-07
8.69731e-07
8.6975e-07
8.69731e-07
8.69107e-07
8.68687e-07
8.67567e-07
8.67567e-07
8.67567e-07
8.68838e-07
8.69127e-07
8.69744e-07
8.69107e-07
8.6865e-07
8.67567e-07
8.67569e-07
8.67568e-07
8.67569e-07
8.67567e-07
8.68815e-07
8.69125e-07
8.69747e-07
8.69717e-07
8.68687e-07
8.67567e-07
8.67568e-07
8.67567e-07
8.67568e-07
8.67567e-07
8.67568e-07
8.67567e-07
8.68841e-07
8.69211e-07
8.69763e-07
8.69008e-07
8.67567e-07
8.67569e-07
8.67567e-07
8.67568e-07
8.67567e-07
8.67569e-07
8.67567e-07
8.67569e-07
8.67567e-07
8.6927e-07
8.69914e-07
8.68946e-07
8.67567e-07
8.67567e-07
8.67568e-07
8.67567e-07
8.67568e-07
8.67567e-07
8.67568e-07
8.67568e-07
8.67567e-07
8.69262e-07
8.69932e-07
8.68994e-07
8.67567e-07
8.67569e-07
8.67567e-07
8.67568e-07
8.67567e-07
8.67568e-07
8.67567e-07
8.67569e-07
8.67567e-07
8.69264e-07
8.69932e-07
8.69731e-07
8.68838e-07
8.67567e-07
8.67568e-07
8.67567e-07
8.67568e-07
8.67567e-07
8.67568e-07
8.67567e-07
8.69057e-07
8.69261e-07
8.69903e-07
8.6975e-07
8.69127e-07
8.68815e-07
8.67567e-07
8.67569e-07
8.67568e-07
8.67569e-07
8.67567e-07
8.69024e-07
8.6918e-07
8.69303e-07
8.69744e-07
8.69125e-07
8.68841e-07
8.67567e-07
8.67567e-07
8.67567e-07
8.69057e-07
8.6918e-07
8.69278e-07
8.69884e-07
8.69747e-07
8.69211e-07
8.6927e-07
8.69262e-07
8.69264e-07
8.69261e-07
8.69302e-07
8.69884e-07
8.69763e-07
8.69914e-07
8.69932e-07
8.69932e-07
8.69903e-07
8.61007e-07
8.60298e-07
8.60237e-07
8.60285e-07
8.61021e-07
8.6104e-07
8.61021e-07
8.60398e-07
8.59978e-07
8.58857e-07
8.58858e-07
8.58857e-07
8.60129e-07
8.60417e-07
8.61034e-07
8.60398e-07
8.59941e-07
8.58857e-07
8.58859e-07
8.58858e-07
8.58859e-07
8.58857e-07
8.60106e-07
8.60415e-07
8.61037e-07
8.61007e-07
8.59978e-07
8.58857e-07
8.58858e-07
8.58857e-07
8.58858e-07
8.58857e-07
8.58858e-07
8.58857e-07
8.60131e-07
8.60501e-07
8.61053e-07
8.60298e-07
8.58857e-07
8.58859e-07
8.58857e-07
8.58859e-07
8.58858e-07
8.58859e-07
8.58857e-07
8.58859e-07
8.58857e-07
8.6056e-07
8.61204e-07
8.60237e-07
8.58858e-07
8.58858e-07
8.58858e-07
8.58858e-07
8.58858e-07
8.58858e-07
8.58858e-07
8.58858e-07
8.58858e-07
8.60552e-07
8.61223e-07
8.60285e-07
8.58857e-07
8.58859e-07
8.58857e-07