/*--------------------------------*- C++ -*----------------------------------*\
| =========                 |                                                 |
| \\      /  F ield         | OpenFOAM: The Open Source CFD Toolbox           |
|  \\    /   O peration     | Version:  v2012                                 |
|   \\  /    A nd           | Website:  www.openfoam.com                      |
|    \\/     M anipulation  |                                                 |
\*---------------------------------------------------------------------------*/
FoamFile
{
    version     2.0;
    format      ascii;
    class       volScalarField;
    location    "13";
    object      p;
}
// * * * * * * * * * * * * * * * * * * * * * * * * * * * * * * * * * * * * * //

dimensions      [0 2 -2 0 0 0 0];


internalField   nonuniform List<scalar> 
292667
(
1.78055e-06
1.76639e-06
1.76511e-06
1.76524e-06
1.76709e-06
1.78159e-06
1.76669e-06
1.76221e-06
1.75969e-06
1.75867e-06
1.75881e-06
1.76016e-06
1.76314e-06
1.76811e-06
1.76669e-06
1.76094e-06
1.75755e-06
1.7557e-06
1.75492e-06
1.75503e-06
1.75605e-06
1.75822e-06
1.76213e-06
1.76852e-06
1.78054e-06
1.76221e-06
1.75755e-06
1.75486e-06
1.75336e-06
1.75272e-06
1.75281e-06
1.75365e-06
1.7554e-06
1.75848e-06
1.76383e-06
1.78151e-06
1.76638e-06
1.75969e-06
1.7557e-06
1.75336e-06
1.75204e-06
1.75146e-06
1.75154e-06
1.75229e-06
1.75383e-06
1.7565e-06
1.76108e-06
1.77247e-06
1.76511e-06
1.75867e-06
1.75492e-06
1.75272e-06
1.75146e-06
1.75091e-06
1.75099e-06
1.7517e-06
1.75316e-06
1.75568e-06
1.75998e-06
1.76965e-06
1.76524e-06
1.75881e-06
1.75503e-06
1.75281e-06
1.75154e-06
1.75099e-06
1.75107e-06
1.75178e-06
1.75326e-06
1.75579e-06
1.76013e-06
1.76992e-06
1.76709e-06
1.76016e-06
1.75605e-06
1.75365e-06
1.75229e-06
1.7517e-06
1.75178e-06
1.75255e-06
1.75413e-06
1.75687e-06
1.7616e-06
1.77297e-06
1.78159e-06
1.76314e-06
1.75822e-06
1.7554e-06
1.75383e-06
1.75316e-06
1.75326e-06
1.75413e-06
1.75596e-06
1.7592e-06
1.76479e-06
1.78194e-06
1.76811e-06
1.76213e-06
1.75848e-06
1.7565e-06
1.75567e-06
1.75579e-06
1.75687e-06
1.7592e-06
1.76339e-06
1.77337e-06
1.76852e-06
1.76383e-06
1.76108e-06
1.75998e-06
1.76013e-06
1.7616e-06
1.76479e-06
1.77337e-06
1.78151e-06
1.77247e-06
1.76965e-06
1.76992e-06
1.77297e-06
1.78194e-06
1.74031e-06
1.73867e-06
1.73861e-06
1.73867e-06
1.74006e-06
1.74013e-06
1.74038e-06
1.73903e-06
1.73848e-06
1.7361e-06
1.73604e-06
1.7361e-06
1.73849e-06
1.73885e-06
1.7402e-06
1.73902e-06
1.73848e-06
1.73623e-06
1.73606e-06
1.73605e-06
1.73606e-06
1.73622e-06
1.7384e-06
1.73885e-06
1.74017e-06
1.74031e-06
1.73848e-06
1.73623e-06
1.73611e-06
1.73608e-06
1.73607e-06
1.73608e-06
1.73611e-06
1.73623e-06
1.73839e-06
1.7389e-06
1.7404e-06
1.73867e-06
1.7361e-06
1.73606e-06
1.73608e-06
1.73605e-06
1.73604e-06
1.73605e-06
1.73608e-06
1.73606e-06
1.7361e-06
1.7388e-06
1.74018e-06
1.73861e-06
1.73604e-06
1.73605e-06
1.73607e-06
1.73604e-06
1.73602e-06
1.73604e-06
1.73607e-06
1.73605e-06
1.73604e-06
1.73869e-06
1.73985e-06
1.73867e-06
1.7361e-06
1.73606e-06
1.73608e-06
1.73605e-06
1.73604e-06
1.73605e-06
1.73608e-06
1.73606e-06
1.7361e-06
1.73874e-06
1.73994e-06
1.74006e-06
1.73849e-06
1.73622e-06
1.73611e-06
1.73608e-06
1.73607e-06
1.73608e-06
1.73611e-06
1.73623e-06
1.73831e-06
1.73888e-06
1.74025e-06
1.74013e-06
1.73885e-06
1.7384e-06
1.73623e-06
1.73606e-06
1.73605e-06
1.73606e-06
1.73623e-06
1.73827e-06
1.73872e-06
1.73898e-06
1.7402e-06
1.73885e-06
1.73839e-06
1.7361e-06
1.73604e-06
1.7361e-06
1.73831e-06
1.73872e-06
1.73908e-06
1.74038e-06
1.74017e-06
1.7389e-06
1.7388e-06
1.73869e-06
1.73874e-06
1.73888e-06
1.73898e-06
1.74038e-06
1.7404e-06
1.74018e-06
1.73985e-06
1.73994e-06
1.74025e-06
1.72537e-06
1.72385e-06
1.72381e-06
1.72382e-06
1.72521e-06
1.72538e-06
1.72547e-06
1.72409e-06
1.72353e-06
1.72111e-06
1.7211e-06
1.72111e-06
1.72357e-06
1.72396e-06
1.72527e-06
1.72408e-06
1.72354e-06
1.72118e-06
1.72114e-06
1.72117e-06
1.72114e-06
1.72118e-06
1.7235e-06
1.72393e-06
1.72528e-06
1.72537e-06
1.72353e-06
1.72118e-06
1.72117e-06
1.72123e-06
1.72124e-06
1.72123e-06
1.72117e-06
1.72118e-06
1.72349e-06
1.72402e-06
1.72544e-06
1.72385e-06
1.72111e-06
1.72114e-06
1.72123e-06
1.72126e-06
1.72127e-06
1.72126e-06
1.72123e-06
1.72114e-06
1.72111e-06
1.72392e-06
1.72544e-06
1.72381e-06
1.7211e-06
1.72117e-06
1.72124e-06
1.72127e-06
1.72128e-06
1.72127e-06
1.72124e-06
1.72117e-06
1.7211e-06
1.72385e-06
1.72537e-06
1.72382e-06
1.72111e-06
1.72114e-06
1.72123e-06
1.72126e-06
1.72127e-06
1.72126e-06
1.72123e-06
1.72114e-06
1.72111e-06
1.72388e-06
1.72537e-06
1.72521e-06
1.72357e-06
1.72118e-06
1.72117e-06
1.72123e-06
1.72124e-06
1.72123e-06
1.72117e-06
1.72118e-06
1.72347e-06
1.72398e-06
1.72548e-06
1.72538e-06
1.72396e-06
1.7235e-06
1.72118e-06
1.72114e-06
1.72117e-06
1.72114e-06
1.72118e-06
1.72344e-06
1.72382e-06
1.72414e-06
1.72527e-06
1.72393e-06
1.72349e-06
1.72111e-06
1.7211e-06
1.72111e-06
1.72347e-06
1.72382e-06
1.72412e-06
1.72549e-06
1.72528e-06
1.72402e-06
1.72392e-06
1.72385e-06
1.72388e-06
1.72398e-06
1.72414e-06
1.72549e-06
1.72544e-06
1.72544e-06
1.72537e-06
1.72537e-06
1.72548e-06
1.71067e-06
1.70912e-06
1.70905e-06
1.70908e-06
1.71049e-06
1.71067e-06
1.71076e-06
1.70935e-06
1.70873e-06
1.70629e-06
1.70629e-06
1.70629e-06
1.70877e-06
1.70923e-06
1.71056e-06
1.70935e-06
1.70872e-06
1.70633e-06
1.70633e-06
1.70635e-06
1.70633e-06
1.70633e-06
1.70872e-06
1.70921e-06
1.71057e-06
1.71067e-06
1.70873e-06
1.70633e-06
1.70635e-06
1.70639e-06
1.7064e-06
1.70639e-06
1.70635e-06
1.70633e-06
1.70872e-06
1.70931e-06
1.71073e-06
1.70912e-06
1.70629e-06
1.70633e-06
1.7064e-06
1.70643e-06
1.70644e-06
1.70642e-06
1.7064e-06
1.70633e-06
1.70629e-06
1.70919e-06
1.71072e-06
1.70905e-06
1.70629e-06
1.70635e-06
1.70641e-06
1.70644e-06
1.70645e-06
1.70644e-06
1.7064e-06
1.70635e-06
1.70629e-06
1.70911e-06
1.71065e-06
1.70908e-06
1.70629e-06
1.70633e-06
1.70639e-06
1.70643e-06
1.70644e-06
1.70642e-06
1.70639e-06
1.70633e-06
1.70629e-06
1.70914e-06
1.71065e-06
1.71049e-06
1.70877e-06
1.70633e-06
1.70635e-06
1.7064e-06
1.7064e-06
1.70639e-06
1.70635e-06
1.70633e-06
1.70873e-06
1.70927e-06
1.71077e-06
1.71067e-06
1.70923e-06
1.70872e-06
1.70633e-06
1.70633e-06
1.70635e-06
1.70633e-06
1.70633e-06
1.7087e-06
1.70909e-06
1.70943e-06
1.71056e-06
1.70921e-06
1.70872e-06
1.70629e-06
1.70629e-06
1.70629e-06
1.70873e-06
1.70909e-06
1.7094e-06
1.71079e-06
1.71057e-06
1.70931e-06
1.70919e-06
1.70911e-06
1.70914e-06
1.70927e-06
1.70943e-06
1.71079e-06
1.71073e-06
1.71072e-06
1.71065e-06
1.71065e-06
1.71077e-06
1.69594e-06
1.69438e-06
1.69431e-06
1.69434e-06
1.69576e-06
1.69594e-06
1.69604e-06
1.69461e-06
1.69397e-06
1.69152e-06
1.69152e-06
1.69152e-06
1.69401e-06
1.6945e-06
1.69583e-06
1.69461e-06
1.69395e-06
1.69154e-06
1.69154e-06
1.69156e-06
1.69154e-06
1.69154e-06
1.69396e-06
1.69448e-06
1.69584e-06
1.69594e-06
1.69397e-06
1.69154e-06
1.69156e-06
1.69159e-06
1.69159e-06
1.69159e-06
1.69156e-06
1.69154e-06
1.69397e-06
1.69458e-06
1.69601e-06
1.69438e-06
1.69152e-06
1.69154e-06
1.69159e-06
1.69161e-06
1.69162e-06
1.69161e-06
1.69159e-06
1.69154e-06
1.69152e-06
1.69445e-06
1.69599e-06
1.69431e-06
1.69152e-06
1.69156e-06
1.69159e-06
1.69162e-06
1.69163e-06
1.69162e-06
1.69159e-06
1.69156e-06
1.69152e-06
1.69437e-06
1.69592e-06
1.69434e-06
1.69152e-06
1.69154e-06
1.69159e-06
1.69161e-06
1.69162e-06
1.69161e-06
1.69159e-06
1.69154e-06
1.69152e-06
1.6944e-06
1.69592e-06
1.69576e-06
1.69401e-06
1.69154e-06
1.69156e-06
1.69159e-06
1.69159e-06
1.69159e-06
1.69156e-06
1.69154e-06
1.69399e-06
1.69453e-06
1.69604e-06
1.69594e-06
1.6945e-06
1.69396e-06
1.69154e-06
1.69154e-06
1.69156e-06
1.69154e-06
1.69154e-06
1.69395e-06
1.69436e-06
1.6947e-06
1.69583e-06
1.69448e-06
1.69397e-06
1.69152e-06
1.69152e-06
1.69152e-06
1.69399e-06
1.69436e-06
1.69466e-06
1.69606e-06
1.69584e-06
1.69458e-06
1.69445e-06
1.69437e-06
1.6944e-06
1.69453e-06
1.6947e-06
1.69606e-06
1.69601e-06
1.69599e-06
1.69592e-06
1.69592e-06
1.69604e-06
1.6812e-06
1.67964e-06
1.67957e-06
1.6796e-06
1.68102e-06
1.68121e-06
1.6813e-06
1.67987e-06
1.67922e-06
1.67677e-06
1.67677e-06
1.67677e-06
1.67927e-06
1.67976e-06
1.68109e-06
1.67987e-06
1.67919e-06
1.67678e-06
1.67678e-06
1.67679e-06
1.67678e-06
1.67678e-06
1.67921e-06
1.67974e-06
1.68111e-06
1.6812e-06
1.67922e-06
1.67678e-06
1.67679e-06
1.67681e-06
1.67681e-06
1.67681e-06
1.67679e-06
1.67678e-06
1.67922e-06
1.67984e-06
1.68127e-06
1.67964e-06
1.67677e-06
1.67678e-06
1.67681e-06
1.67682e-06
1.67683e-06
1.67682e-06
1.67681e-06
1.67678e-06
1.67677e-06
1.67971e-06
1.68126e-06
1.67957e-06
1.67677e-06
1.67679e-06
1.67681e-06
1.67683e-06
1.67683e-06
1.67683e-06
1.67681e-06
1.67679e-06
1.67677e-06
1.67963e-06
1.68118e-06
1.6796e-06
1.67677e-06
1.67678e-06
1.67681e-06
1.67682e-06
1.67683e-06
1.67682e-06
1.67681e-06
1.67678e-06
1.67677e-06
1.67967e-06
1.68118e-06
1.68102e-06
1.67927e-06
1.67678e-06
1.67679e-06
1.67681e-06
1.67681e-06
1.67681e-06
1.67679e-06
1.67678e-06
1.67925e-06
1.6798e-06
1.6813e-06
1.68121e-06
1.67976e-06
1.67921e-06
1.67678e-06
1.67678e-06
1.67679e-06
1.67678e-06
1.67678e-06
1.67921e-06
1.67962e-06
1.67996e-06
1.68109e-06
1.67974e-06
1.67922e-06
1.67677e-06
1.67677e-06
1.67677e-06
1.67925e-06
1.67962e-06
1.67993e-06
1.68132e-06
1.68111e-06
1.67984e-06
1.67971e-06
1.67963e-06
1.67967e-06
1.6798e-06
1.67996e-06
1.68133e-06
1.68127e-06
1.68126e-06
1.68118e-06
1.68118e-06
1.6813e-06
1.66646e-06
1.6649e-06
1.66483e-06
1.66486e-06
1.66629e-06
1.66647e-06
1.66656e-06
1.66513e-06
1.66448e-06
1.66202e-06
1.66202e-06
1.66202e-06
1.66452e-06
1.66502e-06
1.66636e-06
1.66513e-06
1.66445e-06
1.66203e-06
1.66203e-06
1.66203e-06
1.66203e-06
1.66203e-06
1.66446e-06
1.665e-06
1.66637e-06
1.66646e-06
1.66448e-06
1.66203e-06
1.66203e-06
1.66204e-06
1.66205e-06
1.66204e-06
1.66203e-06
1.66203e-06
1.66448e-06
1.66511e-06
1.66653e-06
1.6649e-06
1.66202e-06
1.66203e-06
1.66204e-06
1.66205e-06
1.66206e-06
1.66205e-06
1.66204e-06
1.66203e-06
1.66202e-06
1.66497e-06
1.66652e-06
1.66483e-06
1.66202e-06
1.66203e-06
1.66205e-06
1.66206e-06
1.66206e-06
1.66206e-06
1.66205e-06
1.66203e-06
1.66202e-06
1.66489e-06
1.66644e-06
1.66486e-06
1.66202e-06
1.66203e-06
1.66204e-06
1.66205e-06
1.66206e-06
1.66205e-06
1.66204e-06
1.66203e-06
1.66202e-06
1.66493e-06
1.66644e-06
1.66629e-06
1.66452e-06
1.66203e-06
1.66203e-06
1.66204e-06
1.66205e-06
1.66204e-06
1.66203e-06
1.66203e-06
1.66451e-06
1.66506e-06
1.66656e-06
1.66647e-06
1.66502e-06
1.66446e-06
1.66203e-06
1.66203e-06
1.66203e-06
1.66203e-06
1.66203e-06
1.66447e-06
1.66489e-06
1.66522e-06
1.66636e-06
1.665e-06
1.66448e-06
1.66202e-06
1.66202e-06
1.66202e-06
1.66451e-06
1.66489e-06
1.66519e-06
1.66659e-06
1.66637e-06
1.66511e-06
1.66497e-06
1.66489e-06
1.66493e-06
1.66506e-06
1.66522e-06
1.66659e-06
1.66653e-06
1.66652e-06
1.66644e-06
1.66644e-06
1.66656e-06
1.65172e-06
1.65016e-06
1.65009e-06
1.65012e-06
1.65155e-06
1.65173e-06
1.65182e-06
1.65039e-06
1.64974e-06
1.64728e-06
1.64728e-06
1.64728e-06
1.64978e-06
1.65028e-06
1.65162e-06
1.65039e-06
1.64971e-06
1.64728e-06
1.64728e-06
1.64729e-06
1.64728e-06
1.64728e-06
1.64972e-06
1.65026e-06
1.65163e-06
1.65172e-06
1.64974e-06
1.64728e-06
1.64729e-06
1.64729e-06
1.64729e-06
1.64729e-06
1.64729e-06
1.64728e-06
1.64974e-06
1.65037e-06
1.65179e-06
1.65016e-06
1.64728e-06
1.64728e-06
1.64729e-06
1.6473e-06
1.6473e-06
1.6473e-06
1.64729e-06
1.64728e-06
1.64728e-06
1.65023e-06
1.65178e-06
1.65009e-06
1.64728e-06
1.64729e-06
1.64729e-06
1.6473e-06
1.6473e-06
1.6473e-06
1.64729e-06
1.64729e-06
1.64728e-06
1.65015e-06
1.6517e-06
1.65012e-06
1.64728e-06
1.64728e-06
1.64729e-06
1.6473e-06
1.6473e-06
1.6473e-06
1.64729e-06
1.64728e-06
1.64728e-06
1.65019e-06
1.65171e-06
1.65155e-06
1.64978e-06
1.64728e-06
1.64729e-06
1.64729e-06
1.64729e-06
1.64729e-06
1.64729e-06
1.64728e-06
1.64977e-06
1.65032e-06
1.65182e-06
1.65173e-06
1.65028e-06
1.64972e-06
1.64728e-06
1.64728e-06
1.64729e-06
1.64728e-06
1.64728e-06
1.64973e-06
1.65015e-06
1.65048e-06
1.65162e-06
1.65026e-06
1.64974e-06
1.64728e-06
1.64728e-06
1.64728e-06
1.64977e-06
1.65015e-06
1.65045e-06
1.65185e-06
1.65163e-06
1.65037e-06
1.65023e-06
1.65015e-06
1.65019e-06
1.65032e-06
1.65048e-06
1.65185e-06
1.65179e-06
1.65178e-06
1.6517e-06
1.65171e-06
1.65182e-06
1.63699e-06
1.63542e-06
1.63535e-06
1.63538e-06
1.63681e-06
1.63699e-06
1.63708e-06
1.63565e-06
1.635e-06
1.63254e-06
1.63254e-06
1.63254e-06
1.63504e-06
1.63554e-06
1.63688e-06
1.63565e-06
1.63497e-06
1.63254e-06
1.63254e-06
1.63254e-06
1.63254e-06
1.63254e-06
1.63498e-06
1.63552e-06
1.63689e-06
1.63699e-06
1.635e-06
1.63254e-06
1.63254e-06
1.63254e-06
1.63255e-06
1.63254e-06
1.63254e-06
1.63254e-06
1.635e-06
1.63563e-06
1.63705e-06
1.63542e-06
1.63254e-06
1.63254e-06
1.63254e-06
1.63255e-06
1.63255e-06
1.63255e-06
1.63254e-06
1.63254e-06
1.63254e-06
1.63549e-06
1.63704e-06
1.63535e-06
1.63254e-06
1.63254e-06
1.63255e-06
1.63255e-06
1.63255e-06
1.63255e-06
1.63255e-06
1.63254e-06
1.63254e-06
1.63541e-06
1.63696e-06
1.63538e-06
1.63254e-06
1.63254e-06
1.63254e-06
1.63255e-06
1.63255e-06
1.63255e-06
1.63254e-06
1.63254e-06
1.63254e-06
1.63545e-06
1.63697e-06
1.63681e-06
1.63504e-06
1.63254e-06
1.63254e-06
1.63254e-06
1.63255e-06
1.63254e-06
1.63254e-06
1.63254e-06
1.63503e-06
1.63558e-06
1.63708e-06
1.63699e-06
1.63554e-06
1.63498e-06
1.63254e-06
1.63254e-06
1.63254e-06
1.63254e-06
1.63254e-06
1.63499e-06
1.63541e-06
1.63574e-06
1.63688e-06
1.63552e-06
1.635e-06
1.63254e-06
1.63254e-06
1.63254e-06
1.63503e-06
1.63541e-06
1.63571e-06
1.63711e-06
1.63689e-06
1.63563e-06
1.63549e-06
1.63541e-06
1.63545e-06
1.63558e-06
1.63574e-06
1.63711e-06
1.63705e-06
1.63704e-06
1.63696e-06
1.63697e-06
1.63708e-06
1.62225e-06
1.62068e-06
1.62061e-06
1.62064e-06
1.62207e-06
1.62225e-06
1.62234e-06
1.62091e-06
1.62026e-06
1.6178e-06
1.6178e-06
1.6178e-06
1.6203e-06
1.6208e-06
1.62214e-06
1.62091e-06
1.62023e-06
1.6178e-06
1.6178e-06
1.6178e-06
1.6178e-06
1.6178e-06
1.62024e-06
1.62078e-06
1.62215e-06
1.62225e-06
1.62026e-06
1.6178e-06
1.6178e-06
1.6178e-06
1.6178e-06
1.6178e-06
1.6178e-06
1.6178e-06
1.62026e-06
1.62089e-06
1.62231e-06
1.62068e-06
1.6178e-06
1.6178e-06
1.6178e-06
1.6178e-06
1.6178e-06
1.6178e-06
1.6178e-06
1.6178e-06
1.6178e-06
1.62075e-06
1.6223e-06
1.62061e-06
1.6178e-06
1.6178e-06
1.6178e-06
1.6178e-06
1.6178e-06
1.6178e-06
1.6178e-06
1.6178e-06
1.6178e-06
1.62067e-06
1.62222e-06
1.62064e-06
1.6178e-06
1.6178e-06
1.6178e-06
1.6178e-06
1.6178e-06
1.6178e-06
1.6178e-06
1.6178e-06
1.6178e-06
1.62071e-06
1.62223e-06
1.62207e-06
1.6203e-06
1.6178e-06
1.6178e-06
1.6178e-06
1.6178e-06
1.6178e-06
1.6178e-06
1.6178e-06
1.62029e-06
1.62084e-06
1.62234e-06
1.62225e-06
1.6208e-06
1.62024e-06
1.6178e-06
1.6178e-06
1.6178e-06
1.6178e-06
1.6178e-06
1.62025e-06
1.62067e-06
1.621e-06
1.62214e-06
1.62078e-06
1.62026e-06
1.6178e-06
1.6178e-06
1.6178e-06
1.62029e-06
1.62067e-06
1.62097e-06
1.62237e-06
1.62215e-06
1.62089e-06
1.62075e-06
1.62067e-06
1.62071e-06
1.62084e-06
1.621e-06
1.62237e-06
1.62231e-06
1.6223e-06
1.62222e-06
1.62223e-06
1.62234e-06
1.60751e-06
1.60594e-06
1.60587e-06
1.6059e-06
1.60733e-06
1.60751e-06
1.6076e-06
1.60617e-06
1.60552e-06
1.60306e-06
1.60306e-06
1.60306e-06
1.60556e-06
1.60606e-06
1.6074e-06
1.60617e-06
1.60549e-06
1.60306e-06
1.60306e-06
1.60306e-06
1.60306e-06
1.60306e-06
1.6055e-06
1.60604e-06
1.60741e-06
1.60751e-06
1.60552e-06
1.60306e-06
1.60306e-06
1.60306e-06
1.60306e-06
1.60306e-06
1.60306e-06
1.60306e-06
1.60552e-06
1.60615e-06
1.60757e-06
1.60594e-06
1.60306e-06
1.60306e-06
1.60306e-06
1.60306e-06
1.60306e-06
1.60306e-06
1.60306e-06
1.60306e-06
1.60306e-06
1.60601e-06
1.60756e-06
1.60587e-06
1.60306e-06
1.60306e-06
1.60306e-06
1.60306e-06
1.60306e-06
1.60306e-06
1.60306e-06
1.60306e-06
1.60306e-06
1.60593e-06
1.60748e-06
1.6059e-06
1.60306e-06
1.60306e-06
1.60306e-06
1.60306e-06
1.60306e-06
1.60306e-06
1.60306e-06
1.60306e-06
1.60306e-06
1.60597e-06
1.60749e-06
1.60733e-06
1.60556e-06
1.60306e-06
1.60306e-06
1.60306e-06
1.60306e-06
1.60306e-06
1.60306e-06
1.60306e-06
1.60555e-06
1.6061e-06
1.6076e-06
1.60751e-06
1.60606e-06
1.6055e-06
1.60306e-06
1.60306e-06
1.60306e-06
1.60306e-06
1.60306e-06
1.60551e-06
1.60593e-06
1.60626e-06
1.6074e-06
1.60604e-06
1.60552e-06
1.60306e-06
1.60306e-06
1.60306e-06
1.60555e-06
1.60593e-06
1.60623e-06
1.60763e-06
1.60741e-06
1.60615e-06
1.60601e-06
1.60593e-06
1.60597e-06
1.6061e-06
1.60626e-06
1.60763e-06
1.60757e-06
1.60756e-06
1.60748e-06
1.60749e-06
1.6076e-06
1.59277e-06
1.5912e-06
1.59113e-06
1.59116e-06
1.59259e-06
1.59277e-06
1.59286e-06
1.59143e-06
1.59078e-06
1.58832e-06
1.58832e-06
1.58832e-06
1.59082e-06
1.59132e-06
1.59266e-06
1.59143e-06
1.59075e-06
1.58832e-06
1.58832e-06
1.58832e-06
1.58832e-06
1.58832e-06
1.59076e-06
1.5913e-06
1.59267e-06
1.59277e-06
1.59078e-06
1.58832e-06
1.58832e-06
1.58832e-06
1.58832e-06
1.58832e-06
1.58832e-06
1.58832e-06
1.59078e-06
1.59141e-06
1.59283e-06
1.5912e-06
1.58832e-06
1.58832e-06
1.58832e-06
1.58832e-06
1.58832e-06
1.58832e-06
1.58832e-06
1.58832e-06
1.58832e-06
1.59127e-06
1.59282e-06
1.59113e-06
1.58832e-06
1.58832e-06
1.58832e-06
1.58832e-06
1.58832e-06
1.58832e-06
1.58832e-06
1.58832e-06
1.58832e-06
1.59119e-06
1.59274e-06
1.59116e-06
1.58832e-06
1.58832e-06
1.58832e-06
1.58832e-06
1.58832e-06
1.58832e-06
1.58832e-06
1.58832e-06
1.58832e-06
1.59123e-06
1.59275e-06
1.59259e-06
1.59082e-06
1.58832e-06
1.58832e-06
1.58832e-06
1.58832e-06
1.58832e-06
1.58832e-06
1.58832e-06
1.59081e-06
1.59136e-06
1.59286e-06
1.59277e-06
1.59132e-06
1.59076e-06
1.58832e-06
1.58832e-06
1.58832e-06
1.58832e-06
1.58832e-06
1.59077e-06
1.59119e-06
1.59152e-06
1.59266e-06
1.5913e-06
1.59078e-06
1.58832e-06
1.58832e-06
1.58832e-06
1.59081e-06
1.59119e-06
1.59149e-06
1.59289e-06
1.59267e-06
1.59141e-06
1.59127e-06
1.59119e-06
1.59123e-06
1.59136e-06
1.59152e-06
1.59289e-06
1.59283e-06
1.59282e-06
1.59274e-06
1.59275e-06
1.59286e-06
1.57803e-06
1.57646e-06
1.57639e-06
1.57642e-06
1.57785e-06
1.57803e-06
1.57812e-06
1.57669e-06
1.57604e-06
1.57358e-06
1.57358e-06
1.57358e-06
1.57608e-06
1.57658e-06
1.57792e-06
1.57669e-06
1.57601e-06
1.57358e-06
1.57358e-06
1.57358e-06
1.57358e-06
1.57358e-06
1.57602e-06
1.57656e-06
1.57793e-06
1.57803e-06
1.57604e-06
1.57358e-06
1.57358e-06
1.57358e-06
1.57358e-06
1.57358e-06
1.57358e-06
1.57358e-06
1.57604e-06
1.57667e-06
1.57809e-06
1.57646e-06
1.57358e-06
1.57358e-06
1.57358e-06
1.57358e-06
1.57358e-06
1.57358e-06
1.57358e-06
1.57358e-06
1.57358e-06
1.57653e-06
1.57808e-06
1.57639e-06
1.57358e-06
1.57358e-06
1.57358e-06
1.57358e-06
1.57358e-06
1.57358e-06
1.57358e-06
1.57358e-06
1.57358e-06
1.57645e-06
1.578e-06
1.57642e-06
1.57358e-06
1.57358e-06
1.57358e-06
1.57358e-06
1.57358e-06
1.57358e-06
1.57358e-06
1.57358e-06
1.57358e-06
1.57649e-06
1.57801e-06
1.57785e-06
1.57608e-06
1.57358e-06
1.57358e-06
1.57358e-06
1.57358e-06
1.57358e-06
1.57358e-06
1.57358e-06
1.57607e-06
1.57662e-06
1.57812e-06
1.57803e-06
1.57658e-06
1.57602e-06
1.57358e-06
1.57358e-06
1.57358e-06
1.57358e-06
1.57358e-06
1.57603e-06
1.57645e-06
1.57678e-06
1.57792e-06
1.57656e-06
1.57604e-06
1.57358e-06
1.57358e-06
1.57358e-06
1.57607e-06
1.57645e-06
1.57675e-06
1.57815e-06
1.57793e-06
1.57667e-06
1.57654e-06
1.57645e-06
1.57649e-06
1.57662e-06
1.57678e-06
1.57815e-06
1.57809e-06
1.57808e-06
1.578e-06
1.57801e-06
1.57812e-06
1.56329e-06
1.56172e-06
1.56165e-06
1.56168e-06
1.56311e-06
1.56329e-06
1.56338e-06
1.56195e-06
1.5613e-06
1.55884e-06
1.55884e-06
1.55884e-06
1.56134e-06
1.56184e-06
1.56318e-06
1.56195e-06
1.56127e-06
1.55884e-06
1.55884e-06
1.55884e-06
1.55884e-06
1.55884e-06
1.56128e-06
1.56182e-06
1.56319e-06
1.56329e-06
1.5613e-06
1.55884e-06
1.55884e-06
1.55884e-06
1.55884e-06
1.55884e-06
1.55884e-06
1.55884e-06
1.5613e-06
1.56193e-06
1.56335e-06
1.56172e-06
1.55884e-06
1.55884e-06
1.55884e-06
1.55884e-06
1.55884e-06
1.55884e-06
1.55884e-06
1.55884e-06
1.55884e-06
1.5618e-06
1.56334e-06
1.56165e-06
1.55884e-06
1.55884e-06
1.55884e-06
1.55884e-06
1.55884e-06
1.55884e-06
1.55884e-06
1.55884e-06
1.55884e-06
1.56171e-06
1.56326e-06
1.56168e-06
1.55884e-06
1.55884e-06
1.55884e-06
1.55884e-06
1.55884e-06
1.55884e-06
1.55884e-06
1.55884e-06
1.55884e-06
1.56175e-06
1.56327e-06
1.56311e-06
1.56134e-06
1.55884e-06
1.55884e-06
1.55884e-06
1.55884e-06
1.55884e-06
1.55884e-06
1.55884e-06
1.56133e-06
1.56188e-06
1.56338e-06
1.56329e-06
1.56184e-06
1.56128e-06
1.55884e-06
1.55884e-06
1.55884e-06
1.55884e-06
1.55884e-06
1.56129e-06
1.56171e-06
1.56204e-06
1.56318e-06
1.56182e-06
1.5613e-06
1.55884e-06
1.55884e-06
1.55884e-06
1.56133e-06
1.56171e-06
1.56201e-06
1.56341e-06
1.56319e-06
1.56193e-06
1.5618e-06
1.56171e-06
1.56175e-06
1.56188e-06
1.56205e-06
1.56341e-06
1.56335e-06
1.56334e-06
1.56326e-06
1.56327e-06
1.56338e-06
1.54855e-06
1.54698e-06
1.54691e-06
1.54694e-06
1.54837e-06
1.54855e-06
1.54864e-06
1.54721e-06
1.54656e-06
1.5441e-06
1.5441e-06
1.5441e-06
1.5466e-06
1.5471e-06
1.54844e-06
1.54721e-06
1.54653e-06
1.5441e-06
1.5441e-06
1.5441e-06
1.5441e-06
1.5441e-06
1.54654e-06
1.54708e-06
1.54845e-06
1.54855e-06
1.54656e-06
1.5441e-06
1.5441e-06
1.5441e-06
1.5441e-06
1.5441e-06
1.5441e-06
1.5441e-06
1.54656e-06
1.54719e-06
1.54861e-06
1.54698e-06
1.5441e-06
1.5441e-06
1.5441e-06
1.5441e-06
1.5441e-06
1.5441e-06
1.5441e-06
1.5441e-06
1.5441e-06
1.54706e-06
1.5486e-06
1.54691e-06
1.5441e-06
1.5441e-06
1.5441e-06
1.5441e-06
1.5441e-06
1.5441e-06
1.5441e-06
1.5441e-06
1.5441e-06
1.54697e-06
1.54852e-06
1.54694e-06
1.5441e-06
1.5441e-06
1.5441e-06
1.5441e-06
1.5441e-06
1.5441e-06
1.5441e-06
1.5441e-06
1.5441e-06
1.54701e-06
1.54853e-06
1.54837e-06
1.5466e-06
1.5441e-06
1.5441e-06
1.5441e-06
1.5441e-06
1.5441e-06
1.5441e-06
1.5441e-06
1.54659e-06
1.54714e-06
1.54864e-06
1.54855e-06
1.5471e-06
1.54654e-06
1.5441e-06
1.5441e-06
1.5441e-06
1.5441e-06
1.5441e-06
1.54655e-06
1.54697e-06
1.54731e-06
1.54844e-06
1.54708e-06
1.54656e-06
1.5441e-06
1.5441e-06
1.5441e-06
1.54659e-06
1.54697e-06
1.54727e-06
1.54867e-06
1.54845e-06
1.54719e-06
1.54706e-06
1.54697e-06
1.54701e-06
1.54714e-06
1.54731e-06
1.54867e-06
1.54861e-06
1.5486e-06
1.54852e-06
1.54853e-06
1.54864e-06
1.53381e-06
1.53224e-06
1.53217e-06
1.5322e-06
1.53363e-06
1.53381e-06
1.5339e-06
1.53247e-06
1.53182e-06
1.52936e-06
1.52936e-06
1.52936e-06
1.53186e-06
1.53236e-06
1.5337e-06
1.53247e-06
1.53179e-06
1.52936e-06
1.52936e-06
1.52936e-06
1.52936e-06
1.52936e-06
1.5318e-06
1.53234e-06
1.53371e-06
1.53381e-06
1.53182e-06
1.52936e-06
1.52936e-06
1.52936e-06
1.52936e-06
1.52936e-06
1.52936e-06
1.52936e-06
1.53182e-06
1.53245e-06
1.53387e-06
1.53224e-06
1.52936e-06
1.52936e-06
1.52936e-06
1.52936e-06
1.52936e-06
1.52936e-06
1.52936e-06
1.52936e-06
1.52936e-06
1.53232e-06
1.53386e-06
1.53217e-06
1.52936e-06
1.52936e-06
1.52936e-06
1.52936e-06
1.52936e-06
1.52936e-06
1.52936e-06
1.52936e-06
1.52936e-06
1.53223e-06
1.53378e-06
1.5322e-06
1.52936e-06
1.52936e-06
1.52936e-06
1.52936e-06
1.52936e-06
1.52936e-06
1.52936e-06
1.52936e-06
1.52936e-06
1.53227e-06
1.53379e-06
1.53363e-06
1.53186e-06
1.52936e-06
1.52936e-06
1.52936e-06
1.52936e-06
1.52936e-06
1.52936e-06
1.52936e-06
1.53185e-06
1.5324e-06
1.5339e-06
1.53381e-06
1.53236e-06
1.5318e-06
1.52936e-06
1.52936e-06
1.52936e-06
1.52936e-06
1.52936e-06
1.53181e-06
1.53223e-06
1.53257e-06
1.5337e-06
1.53234e-06
1.53182e-06
1.52936e-06
1.52936e-06
1.52936e-06
1.53185e-06
1.53223e-06
1.53253e-06
1.53393e-06
1.53371e-06
1.53245e-06
1.53232e-06
1.53223e-06
1.53227e-06
1.5324e-06
1.53257e-06
1.53393e-06
1.53387e-06
1.53386e-06
1.53378e-06
1.53379e-06
1.5339e-06
1.51907e-06
1.5175e-06
1.51743e-06
1.51746e-06
1.51889e-06
1.51907e-06
1.51916e-06
1.51773e-06
1.51708e-06
1.51462e-06
1.51462e-06
1.51462e-06
1.51712e-06
1.51762e-06
1.51896e-06
1.51773e-06
1.51705e-06
1.51462e-06
1.51462e-06
1.51462e-06
1.51462e-06
1.51462e-06
1.51706e-06
1.5176e-06
1.51897e-06
1.51907e-06
1.51708e-06
1.51462e-06
1.51462e-06
1.51462e-06
1.51462e-06
1.51462e-06
1.51462e-06
1.51462e-06
1.51708e-06
1.51771e-06
1.51913e-06
1.5175e-06
1.51462e-06
1.51462e-06
1.51462e-06
1.51462e-06
1.51462e-06
1.51462e-06
1.51462e-06
1.51462e-06
1.51462e-06
1.51758e-06
1.51912e-06
1.51743e-06
1.51462e-06
1.51462e-06
1.51462e-06
1.51462e-06
1.51462e-06
1.51462e-06
1.51462e-06
1.51462e-06
1.51462e-06
1.51749e-06
1.51904e-06
1.51746e-06
1.51462e-06
1.51462e-06
1.51462e-06
1.51462e-06
1.51462e-06
1.51462e-06
1.51462e-06
1.51462e-06
1.51462e-06
1.51753e-06
1.51905e-06
1.51889e-06
1.51712e-06
1.51462e-06
1.51462e-06
1.51462e-06
1.51462e-06
1.51462e-06
1.51462e-06
1.51462e-06
1.51711e-06
1.51766e-06
1.51916e-06
1.51907e-06
1.51762e-06
1.51706e-06
1.51462e-06
1.51462e-06
1.51462e-06
1.51462e-06
1.51462e-06
1.51707e-06
1.51749e-06
1.51783e-06
1.51896e-06
1.5176e-06
1.51708e-06
1.51462e-06
1.51462e-06
1.51462e-06
1.51711e-06
1.51749e-06
1.51779e-06
1.51919e-06
1.51897e-06
1.51771e-06
1.51758e-06
1.51749e-06
1.51753e-06
1.51766e-06
1.51783e-06
1.51919e-06
1.51913e-06
1.51912e-06
1.51904e-06
1.51905e-06
1.51916e-06
1.50433e-06
1.50276e-06
1.50269e-06
1.50272e-06
1.50415e-06
1.50433e-06
1.50442e-06
1.50299e-06
1.50234e-06
1.49988e-06
1.49988e-06
1.49988e-06
1.50238e-06
1.50288e-06
1.50422e-06
1.50299e-06
1.50231e-06
1.49988e-06
1.49988e-06
1.49988e-06
1.49988e-06
1.49988e-06
1.50232e-06
1.50286e-06
1.50423e-06
1.50433e-06
1.50234e-06
1.49988e-06
1.49988e-06
1.49988e-06
1.49988e-06
1.49988e-06
1.49988e-06
1.49988e-06
1.50234e-06
1.50297e-06
1.50439e-06
1.50276e-06
1.49988e-06
1.49988e-06
1.49988e-06
1.49988e-06
1.49988e-06
1.49988e-06
1.49988e-06
1.49988e-06
1.49988e-06
1.50284e-06
1.50438e-06
1.50269e-06
1.49988e-06
1.49988e-06
1.49988e-06
1.49988e-06
1.49988e-06
1.49988e-06
1.49988e-06
1.49988e-06
1.49988e-06
1.50275e-06
1.5043e-06
1.50272e-06
1.49988e-06
1.49988e-06
1.49988e-06
1.49988e-06
1.49988e-06
1.49988e-06
1.49988e-06
1.49988e-06
1.49988e-06
1.50279e-06
1.50431e-06
1.50415e-06
1.50238e-06
1.49988e-06
1.49988e-06
1.49988e-06
1.49988e-06
1.49988e-06
1.49988e-06
1.49988e-06
1.50237e-06
1.50292e-06
1.50442e-06
1.50433e-06
1.50288e-06
1.50232e-06
1.49988e-06
1.49988e-06
1.49988e-06
1.49988e-06
1.49988e-06
1.50233e-06
1.50275e-06
1.50309e-06
1.50422e-06
1.50286e-06
1.50234e-06
1.49988e-06
1.49988e-06
1.49988e-06
1.50237e-06
1.50275e-06
1.50305e-06
1.50445e-06
1.50423e-06
1.50297e-06
1.50284e-06
1.50275e-06
1.50279e-06
1.50292e-06
1.50309e-06
1.50445e-06
1.50439e-06
1.50438e-06
1.5043e-06
1.50431e-06
1.50442e-06
1.48959e-06
1.48802e-06
1.48795e-06
1.48798e-06
1.48941e-06
1.48959e-06
1.48968e-06
1.48825e-06
1.4876e-06
1.48514e-06
1.48514e-06
1.48514e-06
1.48764e-06
1.48814e-06
1.48948e-06
1.48825e-06
1.48757e-06
1.48514e-06
1.48514e-06
1.48514e-06
1.48514e-06
1.48514e-06
1.48758e-06
1.48812e-06
1.48949e-06
1.48959e-06
1.4876e-06
1.48514e-06
1.48514e-06
1.48514e-06
1.48514e-06
1.48514e-06
1.48514e-06
1.48514e-06
1.4876e-06
1.48823e-06
1.48965e-06
1.48802e-06
1.48514e-06
1.48514e-06
1.48514e-06
1.48514e-06
1.48514e-06
1.48514e-06
1.48514e-06
1.48514e-06
1.48514e-06
1.4881e-06
1.48964e-06
1.48795e-06
1.48514e-06
1.48514e-06
1.48514e-06
1.48514e-06
1.48514e-06
1.48514e-06
1.48514e-06
1.48514e-06
1.48514e-06
1.48801e-06
1.48956e-06
1.48798e-06
1.48514e-06
1.48514e-06
1.48514e-06
1.48514e-06
1.48514e-06
1.48514e-06
1.48514e-06
1.48514e-06
1.48514e-06
1.48805e-06
1.48957e-06
1.48941e-06
1.48764e-06
1.48514e-06
1.48514e-06
1.48514e-06
1.48514e-06
1.48514e-06
1.48514e-06
1.48514e-06
1.48763e-06
1.48818e-06
1.48968e-06
1.48959e-06
1.48814e-06
1.48758e-06
1.48514e-06
1.48514e-06
1.48514e-06
1.48514e-06
1.48514e-06
1.48759e-06
1.48801e-06
1.48835e-06
1.48948e-06
1.48812e-06
1.4876e-06
1.48514e-06
1.48514e-06
1.48514e-06
1.48763e-06
1.48801e-06
1.48831e-06
1.48971e-06
1.48949e-06
1.48823e-06
1.4881e-06
1.48801e-06
1.48805e-06
1.48818e-06
1.48835e-06
1.48971e-06
1.48965e-06
1.48964e-06
1.48956e-06
1.48957e-06
1.48968e-06
1.47485e-06
1.47328e-06
1.47321e-06
1.47324e-06
1.47467e-06
1.47485e-06
1.47494e-06
1.47351e-06
1.47286e-06
1.4704e-06
1.4704e-06
1.4704e-06
1.4729e-06
1.4734e-06
1.47474e-06
1.47351e-06
1.47283e-06
1.4704e-06
1.4704e-06
1.4704e-06
1.4704e-06
1.4704e-06
1.47284e-06
1.47338e-06
1.47475e-06
1.47485e-06
1.47286e-06
1.4704e-06
1.4704e-06
1.4704e-06
1.4704e-06
1.4704e-06
1.4704e-06
1.4704e-06
1.47286e-06
1.47349e-06
1.47491e-06
1.47328e-06
1.4704e-06
1.4704e-06
1.4704e-06
1.4704e-06
1.4704e-06
1.4704e-06
1.4704e-06
1.4704e-06
1.4704e-06
1.47336e-06
1.4749e-06
1.47321e-06
1.4704e-06
1.4704e-06
1.4704e-06
1.4704e-06
1.4704e-06
1.4704e-06
1.4704e-06
1.4704e-06
1.4704e-06
1.47327e-06
1.47482e-06
1.47324e-06
1.4704e-06
1.4704e-06
1.4704e-06
1.4704e-06
1.4704e-06
1.4704e-06
1.4704e-06
1.4704e-06
1.4704e-06
1.47331e-06
1.47483e-06
1.47467e-06
1.4729e-06
1.4704e-06
1.4704e-06
1.4704e-06
1.4704e-06
1.4704e-06
1.4704e-06
1.4704e-06
1.47289e-06
1.47344e-06
1.47494e-06
1.47485e-06
1.4734e-06
1.47284e-06
1.4704e-06
1.4704e-06
1.4704e-06
1.4704e-06
1.4704e-06
1.47285e-06
1.47327e-06
1.47361e-06
1.47474e-06
1.47338e-06
1.47286e-06
1.4704e-06
1.4704e-06
1.4704e-06
1.47289e-06
1.47327e-06
1.47357e-06
1.47497e-06
1.47475e-06
1.47349e-06
1.47336e-06
1.47327e-06
1.47331e-06
1.47344e-06
1.47361e-06
1.47497e-06
1.47491e-06
1.4749e-06
1.47482e-06
1.47483e-06
1.47494e-06
1.46011e-06
1.45854e-06
1.45847e-06
1.4585e-06
1.45993e-06
1.46011e-06
1.4602e-06
1.45877e-06
1.45812e-06
1.45566e-06
1.45566e-06
1.45566e-06
1.45816e-06
1.45866e-06
1.46e-06
1.45877e-06
1.45809e-06
1.45566e-06
1.45566e-06
1.45566e-06
1.45566e-06
1.45566e-06
1.4581e-06
1.45864e-06
1.46001e-06
1.46011e-06
1.45812e-06
1.45566e-06
1.45566e-06
1.45566e-06
1.45566e-06
1.45566e-06
1.45566e-06
1.45566e-06
1.45812e-06
1.45875e-06
1.46017e-06
1.45854e-06
1.45566e-06
1.45566e-06
1.45566e-06
1.45566e-06
1.45566e-06
1.45566e-06
1.45566e-06
1.45566e-06
1.45566e-06
1.45862e-06
1.46016e-06
1.45847e-06
1.45566e-06
1.45566e-06
1.45566e-06
1.45566e-06
1.45566e-06
1.45566e-06
1.45566e-06
1.45566e-06
1.45566e-06
1.45853e-06
1.46008e-06
1.4585e-06
1.45566e-06
1.45566e-06
1.45566e-06
1.45566e-06
1.45566e-06
1.45566e-06
1.45566e-06
1.45566e-06
1.45566e-06
1.45857e-06
1.46009e-06
1.45993e-06
1.45816e-06