/*--------------------------------*- C++ -*----------------------------------*\
| =========                 |                                                 |
| \\      /  F ield         | OpenFOAM: The Open Source CFD Toolbox           |
|  \\    /   O peration     | Version:  v2012                                 |
|   \\  /    A nd           | Website:  www.openfoam.com                      |
|    \\/     M anipulation  |                                                 |
\*---------------------------------------------------------------------------*/
FoamFile
{
    version     2.0;
    format      ascii;
    class       volScalarField;
    location    "96";
    object      p;
}
// * * * * * * * * * * * * * * * * * * * * * * * * * * * * * * * * * * * * * //

dimensions      [0 2 -2 0 0 0 0];


internalField   nonuniform List<scalar> 
292667
(
9.47641e-07
9.39e-07
9.38407e-07
9.38457e-07
9.39238e-07
9.48439e-07
9.392e-07
9.37194e-07
9.36001e-07
9.35508e-07
9.3557e-07
9.36208e-07
9.37573e-07
9.39736e-07
9.39199e-07
9.36616e-07
9.34974e-07
9.34062e-07
9.33676e-07
9.33727e-07
9.34224e-07
9.3528e-07
9.37118e-07
9.39854e-07
9.47641e-07
9.37194e-07
9.34974e-07
9.33637e-07
9.32888e-07
9.32567e-07
9.3261e-07
9.33025e-07
9.33895e-07
9.35407e-07
9.37877e-07
9.46992e-07
9.39e-07
9.36001e-07
9.34062e-07
9.32888e-07
9.32222e-07
9.31934e-07
9.31973e-07
9.32347e-07
9.33121e-07
9.34452e-07
9.36639e-07
9.42144e-07
9.38407e-07
9.35508e-07
9.33676e-07
9.32567e-07
9.31934e-07
9.31658e-07
9.31696e-07
9.32054e-07
9.32791e-07
9.34051e-07
9.36126e-07
9.40699e-07
9.38457e-07
9.3557e-07
9.33727e-07
9.3261e-07
9.31973e-07
9.31696e-07
9.31735e-07
9.32095e-07
9.32837e-07
9.34107e-07
9.36199e-07
9.40982e-07
9.39238e-07
9.36208e-07
9.34224e-07
9.33025e-07
9.32347e-07
9.32054e-07
9.32095e-07
9.32477e-07
9.33269e-07
9.34634e-07
9.3688e-07
9.42417e-07
9.48439e-07
9.37573e-07
9.3528e-07
9.33895e-07
9.33121e-07
9.3279e-07
9.32837e-07
9.33269e-07
9.34175e-07
9.35755e-07
9.3831e-07
9.46811e-07
9.39735e-07
9.37117e-07
9.35407e-07
9.34452e-07
9.34051e-07
9.34107e-07
9.34634e-07
9.35755e-07
9.37692e-07
9.4307e-07
9.39854e-07
9.37877e-07
9.36639e-07
9.36126e-07
9.36199e-07
9.3688e-07
9.38309e-07
9.43069e-07
9.46991e-07
9.42144e-07
9.40699e-07
9.40981e-07
9.42416e-07
9.4681e-07
9.25647e-07
9.25156e-07
9.25115e-07
9.25163e-07
9.25717e-07
9.2556e-07
9.25657e-07
9.25274e-07
9.24985e-07
9.24036e-07
9.2402e-07
9.24036e-07
9.25147e-07
9.25346e-07
9.25731e-07
9.25274e-07
9.24957e-07
9.24062e-07
9.24027e-07
9.24056e-07
9.24027e-07
9.24062e-07
9.25132e-07
9.25338e-07
9.25724e-07
9.25647e-07
9.24985e-07
9.24062e-07
9.24006e-07
9.24021e-07
9.23998e-07
9.24021e-07
9.24006e-07
9.24062e-07
9.25139e-07
9.25381e-07
9.25724e-07
9.25156e-07
9.24036e-07
9.24027e-07
9.24021e-07
9.2398e-07
9.23984e-07
9.2398e-07
9.24022e-07
9.24027e-07
9.24037e-07
9.25551e-07
9.25916e-07
9.25115e-07
9.2402e-07
9.24056e-07
9.23998e-07
9.23984e-07
9.2397e-07
9.23984e-07
9.23998e-07
9.24056e-07
9.2402e-07
9.25572e-07
9.25871e-07
9.25163e-07
9.24036e-07
9.24027e-07
9.24021e-07
9.2398e-07
9.23984e-07
9.2398e-07
9.24021e-07
9.24027e-07
9.24036e-07
9.25559e-07
9.25886e-07
9.25717e-07
9.25147e-07
9.24062e-07
9.24006e-07
9.24022e-07
9.23998e-07
9.24022e-07
9.24006e-07
9.24062e-07
9.25352e-07
9.25456e-07
9.2586e-07
9.2556e-07
9.25346e-07
9.25132e-07
9.24062e-07
9.24027e-07
9.24056e-07
9.24027e-07
9.24062e-07
9.2532e-07
9.2542e-07
9.25407e-07
9.25731e-07
9.25338e-07
9.25139e-07
9.24037e-07
9.2402e-07
9.24036e-07
9.25352e-07
9.2542e-07
9.25432e-07
9.25816e-07
9.25724e-07
9.2538e-07
9.25551e-07
9.25572e-07
9.25559e-07
9.25456e-07
9.25407e-07
9.25816e-07
9.25724e-07
9.25916e-07
9.25871e-07
9.25886e-07
9.2586e-07
9.1776e-07
9.1718e-07
9.17133e-07
9.17175e-07
9.17798e-07
9.17791e-07
9.1776e-07
9.17258e-07
9.1692e-07
9.16022e-07
9.16021e-07
9.16022e-07
9.17077e-07
9.17303e-07
9.17794e-07
9.17258e-07
9.16892e-07
9.16055e-07
9.16064e-07
9.1609e-07
9.16064e-07
9.16055e-07
9.17071e-07
9.17303e-07
9.17795e-07
9.1776e-07
9.1692e-07
9.16055e-07
9.16075e-07
9.16111e-07
9.16106e-07
9.16111e-07
9.16075e-07
9.16055e-07
9.17086e-07
9.17373e-07
9.17797e-07
9.1718e-07
9.16022e-07
9.16065e-07
9.16112e-07
9.16116e-07
9.16135e-07
9.16116e-07
9.16112e-07
9.16065e-07
9.16022e-07
9.17466e-07
9.17964e-07
9.17133e-07
9.16021e-07
9.1609e-07
9.16106e-07
9.16135e-07
9.16134e-07
9.16135e-07
9.16106e-07
9.1609e-07
9.16021e-07
9.17476e-07
9.17995e-07
9.17175e-07
9.16022e-07
9.16065e-07
9.16111e-07
9.16116e-07
9.16135e-07
9.16116e-07
9.16111e-07
9.16065e-07
9.16022e-07
9.17471e-07
9.17994e-07
9.17798e-07
9.17077e-07
9.16055e-07
9.16075e-07
9.16112e-07
9.16106e-07
9.16112e-07
9.16075e-07
9.16055e-07
9.17307e-07
9.17436e-07
9.17944e-07
9.17791e-07
9.17303e-07
9.17071e-07
9.16055e-07
9.16065e-07
9.1609e-07
9.16065e-07
9.16055e-07
9.17286e-07
9.17376e-07
9.17445e-07
9.17794e-07
9.17303e-07
9.17086e-07
9.16022e-07
9.16021e-07
9.16022e-07
9.17307e-07
9.17376e-07
9.17427e-07
9.17918e-07
9.17795e-07
9.17373e-07
9.17466e-07
9.17476e-07
9.17471e-07
9.17436e-07
9.17446e-07
9.17918e-07
9.17797e-07
9.17964e-07
9.17995e-07
9.17994e-07
9.17944e-07
9.09907e-07
9.09316e-07
9.09264e-07
9.09308e-07
9.09942e-07
9.09939e-07
9.09907e-07
9.09392e-07
9.09036e-07
9.08122e-07
9.08124e-07
9.08122e-07
9.09188e-07
9.09428e-07
9.0994e-07
9.09392e-07
9.09002e-07
9.08141e-07
9.08155e-07
9.08167e-07
9.08155e-07
9.08141e-07
9.09172e-07
9.09425e-07
9.09943e-07
9.09906e-07
9.09036e-07
9.08141e-07
9.08163e-07
9.08189e-07
9.08189e-07
9.08189e-07
9.08163e-07
9.0814e-07
9.09193e-07
9.09508e-07
9.09945e-07
9.09316e-07
9.08122e-07
9.08155e-07
9.08189e-07
9.08202e-07
9.08215e-07
9.08202e-07
9.08189e-07
9.08155e-07
9.08122e-07
9.09593e-07
9.1011e-07
9.09264e-07
9.08124e-07
9.08167e-07
9.08189e-07
9.08215e-07
9.08217e-07
9.08215e-07
9.08189e-07
9.08167e-07
9.08124e-07
9.09596e-07
9.10138e-07
9.09308e-07
9.08122e-07
9.08155e-07
9.08189e-07
9.08203e-07
9.08215e-07
9.08203e-07
9.08189e-07
9.08155e-07
9.08122e-07
9.09593e-07
9.10137e-07
9.09942e-07
9.09188e-07
9.0814e-07
9.08163e-07
9.08189e-07
9.08189e-07
9.08189e-07
9.08163e-07
9.08141e-07
9.09415e-07
9.09567e-07
9.1009e-07
9.09939e-07
9.09428e-07
9.09172e-07
9.0814e-07
9.08155e-07
9.08167e-07
9.08156e-07
9.08141e-07
9.09389e-07
9.09494e-07
9.09588e-07
9.0994e-07
9.09425e-07
9.09193e-07
9.08122e-07
9.08124e-07
9.08122e-07
9.09415e-07
9.09494e-07
9.09565e-07
9.10067e-07
9.09943e-07
9.09508e-07
9.09593e-07
9.09596e-07
9.09593e-07
9.09567e-07
9.09588e-07
9.10067e-07
9.09945e-07
9.1011e-07
9.10138e-07
9.10137e-07
9.10089e-07
9.02053e-07
9.01459e-07
9.01406e-07
9.01451e-07
9.02088e-07
9.02086e-07
9.02055e-07
9.01535e-07
9.01172e-07
9.0025e-07
9.00252e-07
9.0025e-07
9.01323e-07
9.01568e-07
9.02088e-07
9.01535e-07
9.01135e-07
9.00259e-07
9.0027e-07
9.00275e-07
9.0027e-07
9.00259e-07
9.01303e-07
9.01565e-07
9.0209e-07
9.02053e-07
9.01172e-07
9.00259e-07
9.00274e-07
9.00289e-07
9.00291e-07
9.00289e-07
9.00274e-07
9.00259e-07
9.01327e-07
9.01652e-07
9.02091e-07
9.01459e-07
9.0025e-07
9.0027e-07
9.0029e-07
9.00302e-07
9.00309e-07
9.00302e-07
9.0029e-07
9.0027e-07
9.0025e-07
9.01734e-07
9.02257e-07
9.01406e-07
9.00252e-07
9.00275e-07
9.00291e-07
9.00309e-07
9.00311e-07
9.00309e-07
9.00291e-07
9.00275e-07
9.00252e-07
9.01735e-07
9.02285e-07
9.01451e-07
9.0025e-07
9.0027e-07
9.00289e-07
9.00302e-07
9.00309e-07
9.00302e-07
9.00289e-07
9.0027e-07
9.0025e-07
9.01733e-07
9.02284e-07
9.02088e-07
9.01323e-07
9.00259e-07
9.00274e-07
9.0029e-07
9.00291e-07
9.0029e-07
9.00274e-07
9.00259e-07
9.01548e-07
9.01711e-07
9.02236e-07
9.02086e-07
9.01568e-07
9.01303e-07
9.00259e-07
9.0027e-07
9.00275e-07
9.0027e-07
9.00259e-07
9.01519e-07
9.01633e-07
9.01735e-07
9.02088e-07
9.01565e-07
9.01327e-07
9.0025e-07
9.00251e-07
9.0025e-07
9.01548e-07
9.01633e-07
9.0171e-07
9.02215e-07
9.0209e-07
9.01652e-07
9.01734e-07
9.01735e-07
9.01732e-07
9.01711e-07
9.01734e-07
9.02215e-07
9.02091e-07
9.02257e-07
9.02284e-07
9.02283e-07
9.02236e-07
8.94198e-07
8.93603e-07
8.93549e-07
8.93594e-07
8.94233e-07
8.94231e-07
8.942e-07
8.93679e-07
8.93313e-07
8.92386e-07
8.92388e-07
8.92386e-07
8.93464e-07
8.93711e-07
8.94233e-07
8.93679e-07
8.93274e-07
8.92391e-07
8.92398e-07
8.924e-07
8.92398e-07
8.92391e-07
8.93442e-07
8.93708e-07
8.94236e-07
8.94198e-07
8.93313e-07
8.92391e-07
8.924e-07
8.92409e-07
8.9241e-07
8.92409e-07
8.924e-07
8.92391e-07
8.93467e-07
8.93796e-07
8.94236e-07
8.93603e-07
8.92386e-07
8.92398e-07
8.92409e-07
8.92417e-07
8.92421e-07
8.92417e-07
8.92409e-07
8.92398e-07
8.92386e-07
8.93877e-07
8.94402e-07
8.93549e-07
8.92388e-07
8.924e-07
8.9241e-07
8.92421e-07
8.92422e-07
8.92421e-07
8.9241e-07
8.924e-07
8.92388e-07
8.93877e-07
8.94429e-07
8.93594e-07
8.92386e-07
8.92398e-07
8.92409e-07
8.92417e-07
8.92421e-07
8.92417e-07
8.92409e-07
8.92398e-07
8.92386e-07
8.93875e-07
8.94428e-07
8.94233e-07
8.93464e-07
8.92391e-07
8.924e-07
8.92409e-07
8.9241e-07
8.92409e-07
8.924e-07
8.92391e-07
8.93688e-07
8.93854e-07
8.94381e-07
8.94231e-07
8.93711e-07
8.93442e-07
8.92391e-07
8.92398e-07
8.924e-07
8.92398e-07
8.92391e-07
8.93657e-07
8.93775e-07
8.93879e-07
8.94233e-07
8.93708e-07
8.93467e-07
8.92386e-07
8.92388e-07
8.92386e-07
8.93688e-07
8.93775e-07
8.93855e-07
8.9436e-07
8.94236e-07
8.93796e-07
8.93877e-07
8.93877e-07
8.93875e-07
8.93854e-07
8.9388e-07
8.94361e-07
8.94236e-07
8.94402e-07
8.94429e-07
8.94428e-07
8.94381e-07
8.86342e-07
8.85746e-07
8.85692e-07
8.85737e-07
8.86376e-07
8.86375e-07
8.86344e-07
8.85822e-07
8.85455e-07
8.84526e-07
8.84528e-07
8.84526e-07
8.85606e-07
8.85854e-07
8.86377e-07
8.85822e-07
8.85416e-07
8.84529e-07
8.84534e-07
8.84534e-07
8.84534e-07
8.84529e-07
8.85584e-07
8.85851e-07
8.8638e-07
8.86342e-07
8.85455e-07
8.84529e-07
8.84535e-07
8.84539e-07
8.8454e-07
8.84539e-07
8.84535e-07
8.84529e-07
8.85609e-07
8.8594e-07
8.8638e-07
8.85746e-07
8.84526e-07
8.84534e-07
8.84539e-07
8.84544e-07
8.84546e-07
8.84544e-07
8.84539e-07
8.84534e-07
8.84526e-07
8.8602e-07
8.86546e-07
8.85692e-07
8.84528e-07
8.84534e-07
8.8454e-07
8.84546e-07
8.84547e-07
8.84546e-07
8.8454e-07
8.84534e-07
8.84528e-07
8.86019e-07
8.86573e-07
8.85737e-07
8.84526e-07
8.84534e-07
8.84539e-07
8.84544e-07
8.84546e-07
8.84544e-07
8.84539e-07
8.84534e-07
8.84526e-07
8.86017e-07
8.86572e-07
8.86376e-07
8.85606e-07
8.84529e-07
8.84535e-07
8.84539e-07
8.8454e-07
8.84539e-07
8.84535e-07
8.84529e-07
8.8583e-07
8.85998e-07
8.86525e-07
8.86375e-07
8.85854e-07
8.85584e-07
8.84529e-07
8.84534e-07
8.84534e-07
8.84534e-07
8.84529e-07
8.85798e-07
8.85918e-07
8.86023e-07
8.86377e-07
8.85851e-07
8.85609e-07
8.84526e-07
8.84528e-07
8.84526e-07
8.8583e-07
8.85918e-07
8.85999e-07
8.86505e-07
8.8638e-07
8.8594e-07
8.8602e-07
8.86019e-07
8.86017e-07
8.85998e-07
8.86023e-07
8.86505e-07
8.8638e-07
8.86546e-07
8.86573e-07
8.86572e-07
8.86525e-07
8.78485e-07
8.77889e-07
8.77834e-07
8.7788e-07
8.7852e-07
8.78519e-07
8.78488e-07
8.77965e-07
8.77598e-07
8.76668e-07
8.76669e-07
8.76668e-07
8.77749e-07
8.77997e-07
8.78521e-07
8.77965e-07
8.77558e-07
8.7667e-07
8.76673e-07
8.76673e-07
8.76673e-07
8.7667e-07
8.77726e-07
8.77994e-07
8.78524e-07
8.78485e-07
8.77598e-07
8.7667e-07
8.76673e-07
8.76675e-07
8.76676e-07
8.76675e-07
8.76673e-07
8.7667e-07
8.77752e-07
8.78083e-07
8.78524e-07
8.77889e-07
8.76668e-07
8.76673e-07
8.76675e-07
8.76679e-07
8.76679e-07
8.76679e-07
8.76675e-07
8.76673e-07
8.76668e-07
8.78164e-07
8.78689e-07
8.77834e-07
8.76669e-07
8.76673e-07
8.76676e-07
8.76679e-07
8.7668e-07
8.76679e-07
8.76676e-07
8.76673e-07
8.76669e-07
8.78163e-07
8.78716e-07
8.7788e-07
8.76668e-07
8.76673e-07
8.76675e-07
8.76679e-07
8.76679e-07
8.76679e-07
8.76675e-07
8.76673e-07
8.76668e-07
8.78161e-07
8.78715e-07
8.7852e-07
8.77749e-07
8.7667e-07
8.76673e-07
8.76675e-07
8.76676e-07
8.76675e-07
8.76673e-07
8.7667e-07
8.77973e-07
8.78141e-07
8.78668e-07
8.78519e-07
8.77997e-07
8.77726e-07
8.7667e-07
8.76673e-07
8.76673e-07
8.76673e-07
8.7667e-07
8.7794e-07
8.78061e-07
8.78167e-07
8.78521e-07
8.77994e-07
8.77752e-07
8.76668e-07
8.76669e-07
8.76668e-07
8.77973e-07
8.78061e-07
8.78143e-07
8.78649e-07
8.78524e-07
8.78083e-07
8.78164e-07
8.78163e-07
8.78161e-07
8.78141e-07
8.78167e-07
8.78648e-07
8.78524e-07
8.78689e-07
8.78716e-07
8.78715e-07
8.78668e-07
8.70629e-07
8.70032e-07
8.69977e-07
8.70023e-07
8.70663e-07
8.70662e-07
8.70631e-07
8.70109e-07
8.6974e-07
8.6881e-07
8.68811e-07
8.6881e-07
8.69892e-07
8.70141e-07
8.70664e-07
8.70109e-07
8.69701e-07
8.68811e-07
8.68814e-07
8.68813e-07
8.68814e-07
8.68811e-07
8.69869e-07
8.70138e-07
8.70667e-07
8.70629e-07
8.69741e-07
8.68811e-07
8.68814e-07
8.68814e-07
8.68815e-07
8.68814e-07
8.68814e-07
8.68811e-07
8.69895e-07
8.70226e-07
8.70667e-07
8.70032e-07
8.6881e-07
8.68814e-07
8.68814e-07
8.68817e-07
8.68817e-07
8.68817e-07
8.68814e-07
8.68814e-07
8.6881e-07
8.70307e-07
8.70832e-07
8.69977e-07
8.68811e-07
8.68813e-07
8.68815e-07
8.68817e-07
8.68817e-07
8.68817e-07
8.68815e-07
8.68813e-07
8.68811e-07
8.70306e-07
8.70859e-07
8.70023e-07
8.6881e-07
8.68814e-07
8.68814e-07
8.68817e-07
8.68817e-07
8.68817e-07
8.68814e-07
8.68814e-07
8.6881e-07
8.70304e-07
8.70858e-07
8.70663e-07
8.69892e-07
8.68811e-07
8.68814e-07
8.68814e-07
8.68815e-07
8.68814e-07
8.68814e-07
8.68811e-07
8.70116e-07
8.70285e-07
8.70812e-07
8.70662e-07
8.70141e-07
8.69869e-07
8.68811e-07
8.68814e-07
8.68813e-07
8.68814e-07
8.68811e-07
8.70083e-07
8.70204e-07
8.7031e-07
8.70664e-07
8.70138e-07
8.69895e-07
8.6881e-07
8.68811e-07
8.6881e-07
8.70116e-07
8.70204e-07
8.70286e-07
8.70792e-07
8.70667e-07
8.70226e-07
8.70307e-07
8.70306e-07
8.70303e-07
8.70284e-07
8.7031e-07
8.70792e-07
8.70667e-07
8.70832e-07
8.70859e-07
8.70858e-07
8.70812e-07
8.62772e-07
8.62175e-07
8.6212e-07
8.62166e-07
8.62806e-07
8.62805e-07
8.62774e-07
8.62251e-07
8.61883e-07
8.60953e-07
8.60954e-07
8.60953e-07
8.62035e-07
8.62284e-07
8.62808e-07
8.62252e-07
8.61843e-07
8.60954e-07
8.60956e-07
8.60955e-07
8.60956e-07
8.60954e-07
8.62011e-07
8.62281e-07
8.6281e-07
8.62772e-07
8.61883e-07
8.60954e-07
8.60955e-07
8.60955e-07
8.60956e-07
8.60955e-07
8.60955e-07
8.60954e-07
8.62038e-07
8.62369e-07
8.6281e-07
8.62175e-07
8.60953e-07
8.60956e-07
8.60955e-07
8.60957e-07
8.60957e-07
8.60957e-07
8.60955e-07
8.60956e-07
8.60953e-07
8.6245e-07
8.62975e-07
8.6212e-07
8.60954e-07
8.60955e-07
8.60956e-07
8.60957e-07
8.60957e-07
8.60957e-07
8.60956e-07
8.60955e-07
8.60954e-07
8.62448e-07
8.63002e-07
8.62166e-07
8.60953e-07
8.60956e-07
8.60955e-07
8.60957e-07
8.60957e-07
8.60957e-07
8.60955e-07
8.60956e-07
8.60953e-07
8.62446e-07
8.63001e-07
8.62806e-07
8.62035e-07
8.60954e-07
8.60955e-07
8.60955e-07
8.60956e-07
8.60955e-07
8.60955e-07
8.60954e-07
8.62258e-07
8.62427e-07
8.62954e-07
8.62805e-07
8.62284e-07
8.62011e-07
8.60954e-07
8.60956e-07
8.60955e-07
8.60956e-07
8.60954e-07
8.62226e-07
8.62347e-07
8.62453e-07
8.62808e-07
8.62281e-07
8.62038e-07
8.60953e-07
8.60954e-07
8.60953e-07
8.62258e-07
8.62347e-07
8.62429e-07
8.62935e-07
8.6281e-07
8.62369e-07
8.6245e-07
8.62449e-07
8.62446e-07
8.62428e-07
8.62453e-07
8.62935e-07
8.6281e-07
8.62975e-07
8.63002e-07
8.63001e-07
8.62955e-07
8.54915e-07
8.54318e-07
8.54263e-07
8.54309e-07
8.54949e-07
8.54948e-07
8.54918e-07
8.54395e-07
8.54026e-07
8.53096e-07
8.53097e-07
8.53096e-07
8.54178e-07
8.54427e-07
8.54951e-07
8.54395e-07
8.53987e-07
8.53096e-07
8.53099e-07
8.53097e-07
8.53099e-07
8.53096e-07
8.54154e-07
8.54423e-07
8.54953e-07
8.54915e-07
8.54026e-07
8.53096e-07
8.53098e-07
8.53097e-07
8.53098e-07
8.53097e-07
8.53098e-07
8.53096e-07
8.54181e-07
8.54512e-07
8.54953e-07
8.54318e-07
8.53096e-07
8.53099e-07
8.53097e-07
8.53099e-07
8.53098e-07
8.53099e-07
8.53097e-07
8.53098e-07
8.53096e-07
8.54593e-07
8.55118e-07
8.54263e-07
8.53097e-07
8.53097e-07
8.53098e-07
8.53098e-07
8.53099e-07
8.53098e-07
8.53098e-07
8.53097e-07
8.53097e-07
8.54591e-07
8.55145e-07
8.54309e-07
8.53096e-07
8.53099e-07
8.53097e-07
8.53099e-07
8.53098e-07
8.53099e-07
8.53097e-07
8.53098e-07
8.53096e-07
8.54589e-07
8.55144e-07
8.54949e-07
8.54178e-07
8.53096e-07
8.53098e-07
8.53097e-07
8.53098e-07
8.53097e-07
8.53098e-07
8.53096e-07
8.54401e-07
8.5457e-07
8.55098e-07
8.54948e-07
8.54427e-07
8.54154e-07
8.53096e-07
8.53099e-07
8.53097e-07
8.53098e-07
8.53096e-07
8.54368e-07
8.5449e-07
8.54596e-07
8.54951e-07
8.54423e-07
8.54181e-07
8.53096e-07
8.53097e-07
8.53096e-07
8.54401e-07
8.5449e-07
8.54572e-07
8.55078e-07
8.54953e-07
8.54512e-07
8.54593e-07
8.54591e-07
8.54589e-07
8.5457e-07
8.54596e-07
8.55078e-07
8.54953e-07
8.55118e-07
8.55145e-07
8.55144e-07
8.55098e-07
8.47058e-07
8.46461e-07
8.46407e-07
8.46452e-07
8.47092e-07
8.47092e-07
8.47061e-07
8.46538e-07
8.46169e-07
8.45239e-07
8.4524e-07
8.45239e-07
8.46321e-07
8.4657e-07
8.47094e-07
8.46538e-07
8.4613e-07
8.45239e-07
8.45241e-07
8.4524e-07
8.45241e-07
8.45239e-07
8.46298e-07
8.46567e-07
8.47097e-07
8.47058e-07
8.46169e-07
8.45239e-07
8.4524e-07
8.4524e-07
8.4524e-07
8.4524e-07
8.4524e-07
8.45239e-07
8.46324e-07
8.46655e-07
8.47096e-07
8.46461e-07
8.45239e-07
8.45241e-07
8.4524e-07
8.45242e-07
8.4524e-07
8.45242e-07
8.4524e-07
8.45241e-07
8.45239e-07
8.46736e-07
8.47262e-07
8.46407e-07
8.4524e-07
8.4524e-07
8.4524e-07
8.4524e-07
8.45241e-07
8.4524e-07
8.4524e-07
8.4524e-07
8.45239e-07
8.46734e-07
8.47288e-07
8.46452e-07
8.45239e-07
8.45241e-07
8.4524e-07
8.45242e-07
8.4524e-07
8.45242e-07
8.4524e-07
8.45241e-07
8.45239e-07
8.46732e-07
8.47287e-07
8.47092e-07
8.46321e-07
8.45239e-07
8.4524e-07
8.4524e-07
8.4524e-07
8.4524e-07
8.4524e-07
8.45239e-07
8.46544e-07
8.46714e-07
8.47241e-07
8.47091e-07
8.4657e-07
8.46298e-07
8.45239e-07
8.45241e-07
8.4524e-07
8.45241e-07
8.45239e-07
8.46512e-07
8.46633e-07
8.4674e-07
8.47094e-07
8.46567e-07
8.46323e-07
8.45239e-07
8.45239e-07
8.45238e-07
8.46544e-07
8.46633e-07
8.46715e-07
8.47221e-07
8.47096e-07
8.46655e-07
8.46736e-07
8.46734e-07
8.46732e-07
8.46713e-07
8.46739e-07
8.47221e-07
8.47096e-07
8.47261e-07
8.47288e-07
8.47287e-07
8.4724e-07
8.39201e-07
8.38604e-07
8.3855e-07
8.38595e-07
8.39235e-07
8.39234e-07
8.39204e-07
8.38681e-07
8.38312e-07
8.37382e-07
8.37383e-07
8.37382e-07
8.38464e-07
8.38713e-07
8.39237e-07
8.38681e-07
8.38273e-07
8.37382e-07
8.37384e-07
8.37383e-07
8.37384e-07
8.37382e-07
8.3844e-07
8.3871e-07
8.3924e-07
8.39201e-07
8.38312e-07
8.37382e-07
8.37383e-07
8.37382e-07
8.37383e-07
8.37382e-07
8.37383e-07
8.37382e-07
8.38467e-07
8.38798e-07
8.39239e-07
8.38604e-07
8.37382e-07
8.37384e-07
8.37382e-07
8.37384e-07
8.37383e-07
8.37384e-07
8.37382e-07
8.37384e-07
8.37382e-07
8.38879e-07
8.39405e-07
8.3855e-07
8.37383e-07
8.37383e-07
8.37383e-07
8.37383e-07
8.37383e-07
8.37383e-07
8.37383e-07
8.37383e-07
8.37383e-07
8.38877e-07
8.39431e-07
8.38595e-07
8.37382e-07
8.37384e-07
8.37382e-07
8.37384e-07
8.37383e-07
8.37384e-07
8.37382e-07
8.37384e-07
8.37382e-07
8.38875e-07
8.3943e-07
8.39235e-07
8.38464e-07
8.37382e-07
8.37383e-07
8.37382e-07
8.37383e-07
8.37382e-07
8.37383e-07
8.37382e-07
8.38687e-07
8.38857e-07
8.39384e-07
8.39234e-07
8.38713e-07
8.3844e-07
8.37382e-07
8.37384e-07
8.37383e-07
8.37384e-07
8.37382e-07
8.38654e-07
8.38776e-07
8.38882e-07
8.39237e-07
8.3871e-07
8.38467e-07
8.37381e-07
8.37382e-07
8.37381e-07
8.38687e-07
8.38776e-07
8.38858e-07
8.39364e-07
8.39239e-07
8.38798e-07
8.38879e-07
8.38877e-07
8.38875e-07
8.38856e-07
8.38882e-07
8.39364e-07
8.39239e-07
8.39405e-07
8.39431e-07
8.3943e-07
8.39384e-07
8.31344e-07
8.30747e-07
8.30692e-07
8.30738e-07
8.31378e-07
8.31377e-07
8.31347e-07
8.30824e-07
8.30455e-07
8.29524e-07
8.29525e-07
8.29524e-07
8.30607e-07
8.30856e-07
8.3138e-07
8.30824e-07
8.30415e-07
8.29525e-07
8.29527e-07
8.29525e-07
8.29527e-07
8.29525e-07
8.30583e-07
8.30853e-07
8.31382e-07
8.31344e-07
8.30455e-07
8.29525e-07
8.29526e-07
8.29525e-07
8.29526e-07
8.29525e-07
8.29526e-07
8.29525e-07
8.3061e-07
8.30941e-07
8.31382e-07
8.30747e-07
8.29524e-07
8.29527e-07
8.29525e-07
8.29527e-07
8.29526e-07
8.29527e-07
8.29525e-07
8.29527e-07
8.29525e-07
8.31022e-07
8.31548e-07
8.30692e-07
8.29525e-07
8.29525e-07
8.29526e-07
8.29526e-07
8.29526e-07
8.29526e-07
8.29526e-07
8.29526e-07
8.29525e-07
8.3102e-07
8.31574e-07
8.30738e-07
8.29524e-07
8.29527e-07
8.29525e-07
8.29527e-07
8.29526e-07
8.29527e-07
8.29525e-07
8.29527e-07
8.29525e-07
8.31018e-07
8.31573e-07
8.31378e-07
8.30607e-07
8.29525e-07
8.29526e-07
8.29525e-07
8.29526e-07
8.29525e-07
8.29526e-07
8.29525e-07
8.3083e-07
8.31e-07
8.31527e-07
8.31377e-07
8.30856e-07
8.30583e-07
8.29525e-07
8.29527e-07
8.29525e-07
8.29527e-07
8.29525e-07
8.30797e-07
8.30919e-07
8.31026e-07
8.3138e-07
8.30853e-07
8.3061e-07
8.29524e-07
8.29525e-07
8.29524e-07
8.3083e-07
8.30919e-07
8.31001e-07
8.31507e-07
8.31382e-07
8.30941e-07
8.31022e-07
8.3102e-07
8.31018e-07
8.31e-07
8.31025e-07
8.31507e-07
8.31382e-07
8.31548e-07
8.31574e-07
8.31573e-07
8.31527e-07
8.23487e-07
8.2289e-07
8.22835e-07
8.22881e-07
8.23521e-07
8.2352e-07
8.23489e-07
8.22967e-07
8.22598e-07
8.21667e-07
8.21668e-07
8.21667e-07
8.2275e-07
8.22999e-07
8.23523e-07
8.22967e-07
8.22558e-07
8.21668e-07
8.2167e-07
8.21668e-07
8.2167e-07
8.21668e-07
8.22726e-07
8.22996e-07
8.23525e-07
8.23487e-07
8.22598e-07
8.21668e-07
8.21669e-07
8.21668e-07
8.21669e-07
8.21668e-07
8.21669e-07
8.21668e-07
8.22753e-07
8.23084e-07
8.23525e-07
8.2289e-07
8.21668e-07
8.2167e-07
8.21668e-07
8.2167e-07
8.21668e-07
8.2167e-07
8.21668e-07
8.2167e-07
8.21668e-07
8.23165e-07
8.23691e-07
8.22835e-07
8.21669e-07
8.21668e-07
8.21669e-07
8.21668e-07
8.21669e-07
8.21668e-07
8.21669e-07
8.21668e-07
8.21669e-07
8.23163e-07
8.23717e-07
8.22881e-07
8.21668e-07
8.2167e-07
8.21668e-07
8.2167e-07
8.21668e-07
8.2167e-07
8.21668e-07
8.2167e-07
8.21668e-07
8.23161e-07
8.23716e-07
8.23521e-07
8.2275e-07
8.21668e-07
8.21669e-07
8.21668e-07
8.21669e-07
8.21668e-07
8.21669e-07
8.21668e-07
8.22973e-07
8.23143e-07
8.2367e-07
8.2352e-07
8.22999e-07
8.22726e-07
8.21668e-07
8.2167e-07
8.21668e-07
8.2167e-07
8.21668e-07
8.2294e-07
8.23062e-07
8.23169e-07
8.23523e-07
8.22996e-07
8.22753e-07
8.21668e-07
8.21669e-07
8.21667e-07
8.22973e-07
8.23062e-07
8.23144e-07
8.2365e-07
8.23525e-07
8.23084e-07
8.23165e-07
8.23163e-07
8.23161e-07
8.23143e-07
8.23168e-07
8.2365e-07
8.23525e-07
8.2369e-07
8.23717e-07
8.23716e-07
8.2367e-07
8.1563e-07
8.15033e-07
8.14978e-07
8.15024e-07
8.15664e-07
8.15663e-07
8.15633e-07
8.1511e-07
8.14741e-07
8.13811e-07
8.13812e-07
8.13811e-07
8.14893e-07
8.15142e-07
8.15666e-07
8.1511e-07
8.14701e-07
8.13811e-07
8.13813e-07
8.13811e-07
8.13813e-07
8.13811e-07
8.14869e-07
8.15139e-07
8.15668e-07
8.1563e-07
8.14741e-07
8.13811e-07
8.13812e-07
8.13811e-07
8.13812e-07
8.13811e-07
8.13812e-07
8.13811e-07
8.14896e-07
8.15227e-07
8.15668e-07
8.15033e-07
8.13811e-07
8.13813e-07
8.13811e-07
8.13813e-07
8.13811e-07
8.13813e-07
8.13811e-07
8.13813e-07
8.1381e-07
8.15308e-07
8.15834e-07
8.14979e-07
8.13812e-07
8.13811e-07
8.13812e-07
8.13811e-07
8.13812e-07
8.13811e-07
8.13812e-07
8.13811e-07
8.13811e-07
8.15306e-07
8.1586e-07
8.15024e-07
8.13811e-07
8.13813e-07
8.13811e-07
8.13813e-07
8.13811e-07
8.13813e-07
8.13811e-07
8.13813e-07
8.1381e-07
8.15304e-07
8.15859e-07
8.15664e-07
8.14893e-07
8.13811e-07
8.13812e-07
8.13811e-07
8.13812e-07
8.13811e-07
8.13812e-07
8.13811e-07
8.15116e-07
8.15286e-07
8.15813e-07
8.15663e-07
8.15142e-07
8.14869e-07
8.13811e-07
8.13813e-07
8.13811e-07
8.13813e-07
8.13811e-07
8.15083e-07
8.15205e-07
8.15311e-07
8.15666e-07
8.15139e-07
8.14896e-07
8.1381e-07
8.13811e-07
8.1381e-07
8.15116e-07
8.15205e-07
8.15287e-07
8.15793e-07
8.15668e-07
8.15227e-07
8.15308e-07
8.15306e-07
8.15304e-07
8.15286e-07
8.15311e-07
8.15793e-07
8.15668e-07
8.15834e-07
8.1586e-07
8.15859e-07
8.15813e-07
8.07773e-07
8.07176e-07
8.07122e-07
8.07167e-07
8.07807e-07
8.07806e-07
8.07776e-07
8.07253e-07
8.06884e-07
8.05954e-07
8.05955e-07
8.05954e-07
8.07036e-07
8.07285e-07
8.07809e-07
8.07253e-07
8.06845e-07
8.05954e-07
8.05956e-07
8.05954e-07
8.05956e-07
8.05954e-07
8.07012e-07
8.07282e-07
8.07811e-07
8.07773e-07
8.06884e-07
8.05954e-07
8.05955e-07
8.05954e-07
8.05955e-07
8.05954e-07
8.05955e-07
8.05954e-07
8.07039e-07
8.0737e-07
8.07811e-07
8.07176e-07
8.05954e-07
8.05956e-07
8.05954e-07
8.05956e-07
8.05954e-07
8.05956e-07
8.05954e-07
8.05956e-07
8.05953e-07
8.07451e-07
8.07977e-07
8.07122e-07
8.05955e-07
8.05954e-07
8.05955e-07
8.05954e-07
8.05955e-07
8.05954e-07
8.05955e-07
8.05954e-07
8.05954e-07
8.07449e-07
8.08003e-07
8.07167e-07
8.05954e-07
8.05956e-07
8.05954e-07
8.05956e-07
8.05954e-07
8.05956e-07
8.05954e-07
8.05956e-07
8.05953e-07
8.07447e-07
8.08002e-07
8.07807e-07
8.07036e-07
8.05954e-07
8.05955e-07
8.05954e-07
8.05955e-07
8.05954e-07
8.05955e-07
8.05954e-07
8.07259e-07
8.07429e-07
8.07956e-07
8.07806e-07
8.07285e-07
8.07012e-07
8.05954e-07
8.05956e-07
8.05954e-07
8.05956e-07
8.05954e-07
8.07226e-07
8.07348e-07
8.07454e-07
8.07809e-07
8.07282e-07
8.07039e-07
8.05953e-07
8.05954e-07
8.05953e-07
8.07259e-07
8.07348e-07
8.0743e-07
8.07936e-07
8.07811e-07
8.0737e-07
8.07451e-07
8.07449e-07
8.07447e-07
8.07429e-07
8.07454e-07
8.07936e-07
8.07811e-07
8.07977e-07
8.08003e-07
8.08002e-07
8.07956e-07
7.99916e-07
7.99319e-07
7.99265e-07
7.9931e-07
7.9995e-07
7.99949e-07
7.99919e-07
7.99396e-07
7.99027e-07
7.98097e-07
7.98098e-07
7.98097e-07
7.99179e-07
7.99428e-07
7.99952e-07
7.99396e-07
7.98988e-07
7.98097e-07
7.98099e-07
7.98097e-07
7.98099e-07
7.98097e-07
7.99155e-07
7.99425e-07
7.99954e-07
7.99916e-07
7.99027e-07
7.98097e-07
7.98098e-07
7.98097e-07
7.98098e-07
7.98097e-07
7.98098e-07
7.98097e-07
7.99182e-07
7.99513e-07
7.99954e-07
7.99319e-07
7.98097e-07
7.98099e-07
7.98097e-07
7.98099e-07
7.98097e-07
7.98099e-07
7.98097e-07
7.98099e-07
7.98096e-07
7.99594e-07
8.0012e-07
7.99265e-07
7.98098e-07
7.98097e-07
7.98098e-07
7.98097e-07
7.98098e-07
7.98097e-07
7.98098e-07
7.98097e-07
7.98097e-07
7.99592e-07
8.00146e-07
7.9931e-07
7.98097e-07
7.98099e-07
7.98097e-07
7.98099e-07
7.98097e-07
7.98099e-07
7.98097e-07
7.98099e-07
7.98096e-07
7.9959e-07
8.00145e-07
7.9995e-07
7.99179e-07
7.98097e-07
7.98098e-07
7.98097e-07
7.98098e-07
7.98097e-07
7.98098e-07
7.98097e-07
7.99402e-07
7.99572e-07
8.00099e-07
7.99949e-07
7.99428e-07
7.99155e-07
7.98097e-07
7.98099e-07
7.98097e-07
7.98099e-07
7.98097e-07
7.99369e-07
7.99491e-07
7.99597e-07
7.99952e-07
7.99425e-07
7.99182e-07
7.98096e-07
7.98097e-07
7.98096e-07
7.99402e-07
7.99491e-07
7.99573e-07
8.00079e-07
7.99954e-07
7.99513e-07
7.99594e-07
7.99592e-07
7.9959e-07
7.99572e-07
7.99597e-07
8.00079e-07
7.99954e-07
8.00119e-07
8.00146e-07
8.00145e-07
8.00099e-07
7.92059e-07
7.91462e-07
7.91407e-07
7.91453e-07
7.92093e-07
7.92092e-07
7.92062e-07
7.91539e-07
7.9117e-07
7.9024e-07
7.90241e-07
7.90239e-07
7.91322e-07
7.91571e-07
7.92095e-07
7.91539e-07
7.91131e-07
7.9024e-07
7.90242e-07
7.9024e-07
7.90242e-07
7.9024e-07
7.91298e-07
7.91568e-07
7.92097e-07
7.92059e-07
7.9117e-07
7.9024e-07
7.90241e-07
7.9024e-07
7.90241e-07
7.9024e-07
7.90241e-07
7.9024e-07
7.91325e-07
7.91656e-07
7.92097e-07
7.91462e-07
7.9024e-07
7.90242e-07
7.9024e-07
7.90242e-07
7.9024e-07
7.90242e-07
7.9024e-07
7.90242e-07
7.90239e-07
7.91737e-07
7.92262e-07
7.91407e-07
7.90241e-07
7.9024e-07
7.90241e-07
7.9024e-07
7.90241e-07
7.9024e-07
7.90241e-07
7.9024e-07
7.90241e-07
7.91735e-07
7.92289e-07
7.91453e-07
7.90239e-07
7.90242e-07
7.9024e-07
7.90242e-07
7.9024e-07
7.90242e-07
7.9024e-07
7.90242e-07
7.90239e-07
7.91733e-07
7.92288e-07
7.92093e-07
7.91322e-07
7.9024e-07
7.90241e-07
7.9024e-07
7.90241e-07
7.9024e-07
7.90241e-07
7.9024e-07
7.91545e-07
7.91715e-07
7.92242e-07
7.92092e-07
7.91571e-07
7.91298e-07
7.9024e-07
7.90242e-07
7.9024e-07
7.90242e-07
7.9024e-07
7.91513e-07
7.91634e-07
7.91741e-07
7.92095e-07
7.91568e-07
7.91325e-07
7.90239e-07
7.9024e-07
7.90239e-07
7.91545e-07
7.91634e-07
7.91716e-07
7.92222e-07
7.92097e-07
7.91656e-07
7.91737e-07
7.91735e-07
7.91733e-07
7.91715e-07
7.9174e-07
7.92222e-07
7.92097e-07
7.92262e-07
7.92289e-07
7.92288e-07
7.92242e-07
7.84202e-07
7.83605e-07
7.8355e-07
7.83596e-07
7.84236e-07
7.84235e-07
7.84205e-07
7.83682e-07
7.83313e-07
7.82383e-07
7.82384e-07
7.82382e-07
7.83465e-07
7.83714e-07
7.84238e-07
7.83682e-07
7.83274e-07
7.82383e-07
7.82385e-07
7.82383e-07
7.82385e-07
7.82383e-07
7.83441e-07
7.83711e-07
7.8424e-07
7.84202e-07
7.83313e-07
7.82383e-07
7.82384e-07
7.82383e-07
7.82384e-07
7.82383e-07
7.82384e-07
7.82383e-07
7.83468e-07
7.83799e-07
7.8424e-07
7.83605e-07
7.82383e-07
7.82385e-07
7.82383e-07
7.82385e-07
7.82383e-07
7.82385e-07
7.82383e-07
7.82385e-07
7.82382e-07
7.8388e-07
7.84406e-07
7.8355e-07
7.82384e-07
7.82383e-07
7.82384e-07
7.82383e-07
7.82384e-07
7.82383e-07
7.82384e-07
7.82383e-07
7.82384e-07
7.83878e-07
7.84432e-07
7.83596e-07
7.82383e-07
7.82385e-07
7.82383e-07
7.82385e-07
7.82383e-07
7.82385e-07
7.82383e-07
7.82385e-07
7.82383e-07
7.83876e-07
7.84431e-07
7.84236e-07
7.83465e-07
7.82383e-07
7.82384e-07
7.82383e-07
7.82384e-07
7.82383e-07
7.82384e-07
7.82383e-07
7.83689e-07
7.83858e-07
7.84385e-07
7.84235e-07
7.83714e-07
7.83441e-07
7.82383e-07
7.82385e-07
7.82383e-07
7.82385e-07
7.82383e-07
7.83656e-07
7.83777e-07
7.83884e-07
7.84238e-07
7.83711e-07
7.83468e-07
7.82382e-07
7.82384e-07
7.82383e-07
7.83689e-07
7.83777e-07
7.83859e-07
7.84365e-07
7.8424e-07
7.83799e-07
7.8388e-07
7.83878e-07
7.83876e-07
7.83858e-07
7.83884e-07
7.84365e-07
7.8424e-07
7.84406e-07
7.84432e-07
7.84431e-07
7.84385e-07
7.76345e-07
7.75748e-07
7.75693e-07
7.75739e-07
7.76379e-07
7.76378e-07
7.76348e-07
7.75825e-07
7.75456e-07
7.74526e-07
7.74527e-07
7.74526e-07
7.75608e-07
7.75857e-07
7.76381e-07
7.75825e-07
7.75417e-07
7.74526e-07
7.74528e-07
7.74526e-07
7.74528e-07
7.74526e-07
7.75584e-07
7.75854e-07
7.76383e-07
7.76345e-07
7.75456e-07
7.74526e-07
7.74527e-07
7.74526e-07
7.74527e-07
7.74526e-07
7.74527e-07
7.74526e-07
7.75611e-07
7.75942e-07
7.76383e-07
7.75748e-07
7.74526e-07
7.74528e-07
7.74526e-07
7.74528e-07
7.74526e-07
7.74528e-07
7.74526e-07
7.74528e-07
7.74525e-07
7.76023e-07
7.76548e-07
7.75694e-07
7.74527e-07
7.74526e-07
7.74527e-07
7.74526e-07
7.74527e-07
7.74526e-07
7.74527e-07
7.74526e-07
7.74527e-07
7.76021e-07
7.76575e-07
7.75739e-07
7.74526e-07
7.74528e-07
7.74526e-07
7.74528e-07
7.74526e-07
7.74528e-07
7.74526e-07
7.74528e-07
7.74525e-07